                         Program Version 4.2.0 -  RELEASE  -
|  1> # ORCA input file
|  2> # SCF done       -146.384239478693          0.000357402356
|  3> ! wb97x-d3 def2-SVP def2/J RIJCOSX Grid4 TightSCF
|  4> %maxcore 5000
|  5> %tddft
|  6>     Mode sTDA
|  7>     Ethresh 5.0
|  8>     maxcore 5000
|  9> end
| 10>
| 11> %pal
| 12>   nprocs 6
| 13>   end
| 14> * xyz 0 1
| 15>    C        0.40170         1.28536         0.70894
| 16>    C        1.55429         0.55470         0.79291
| 17>    C        1.57312        -0.83053         0.56843
| 18>    C        0.42067        -1.54643         0.28472
| 19>    C       -0.79813        -0.80453         0.25125
| 20>    C       -0.79156         0.60893         0.40701
| 21>    N       -1.96953        -1.45034         0.16737
| 22>    C       -3.09241        -0.76781         0.11943
| 23>    C       -3.04163         0.66340        -0.03233
| 24>    N       -1.92018         1.30441         0.18770
| 25>    F        2.71824         1.16846         1.07074
| 26>    F        2.77204        -1.44303         0.62042
| 27>    C        1.38391        -3.90036         0.31662
| 28>    C        1.04886        -5.18901        -0.10812
| 29>    C       -0.16257        -5.25288        -0.75235
| 30>    S       -0.92912        -3.69454        -0.78007
| 31>    C        0.41803        -2.96272         0.03095
| 32>    C       -4.34774        -1.48952         0.29940
| 33>    C       -4.46142        -2.80797        -0.13730
| 34>    C       -5.62999        -3.53728         0.01713
| 35>    C       -6.73893        -2.91951         0.63268
| 36>    C       -6.59509        -1.61602         1.11012
| 37>    C       -5.42811        -0.90470         0.95719
| 38>    C       -4.18727         1.46745        -0.45410
| 39>    C       -4.32692         2.76864         0.01426
| 40>    C       -5.40634         3.53447        -0.37831
| 41>    C       -6.36786         3.04654        -1.25784
| 42>    C       -6.20970         1.74254        -1.77488
| 43>    C       -5.12569         0.98124        -1.35853
| 44>    O       -7.46445         3.76689        -1.64166
| 45>    C       -7.61843         5.09605        -1.18544
| 46>    C       -8.89460         5.64416        -1.80565
| 47>    O       -7.02826         1.10205        -2.65041
| 48>    C       -8.04514         1.78332        -3.36569
| 49>    C       -8.60226         0.80279        -4.38700
| 50>    O       -7.96700        -3.44974         0.84765
| 51>    C       -8.34654        -4.72059         0.34609
| 52>    C       -9.83212        -4.88460         0.63133
| 53>    O       -5.77375        -4.83105        -0.41836
| 54>    C       -4.62352        -5.61009        -0.68494
| 55>    C       -3.82183        -5.93335         0.57024
| 56>    C       -0.80385        -6.41210        -1.33055
| 57>    C       -0.54239        -7.69730        -0.84634
| 58>    C       -1.17751        -8.79319        -1.38393
| 59>    C       -2.09791        -8.65913        -2.42798
| 60>    C       -2.34376        -7.37430        -2.92383
| 61>    C       -1.70980        -6.27773        -2.38558
| 62>    C       -2.77097        -9.81740        -2.97148
| 63>    S       -2.39260       -11.41932        -2.39626
| 64>    C       -3.53523       -12.12346        -3.46378
| 65>    C       -4.17221       -11.19058        -4.21756
| 66>    C       -3.73947        -9.88023        -3.93931
| 67>    H        0.40175         2.35332         0.84554
| 68>    H        2.30223        -3.67336         0.82494
| 69>    H        1.69675        -6.03723         0.02241
| 70>    H       -3.60281        -3.24500        -0.61839
| 71>    H       -7.44457        -1.18115         1.61232
| 72>    H       -5.35034         0.09123         1.36292
| 73>    H       -3.59473         3.16624         0.69797
| 74>    H       -5.50129         4.53256         0.01791
| 75>    H       -5.03172        -0.00785        -1.77754
| 76>    H       -6.75635         5.70419        -1.49207
| 77>    H       -7.69315         5.11445        -0.08940
| 78>    H       -8.82192         5.62141        -2.88958
| 79>    H       -9.05194         6.66826        -1.48005
| 80>    H       -9.74480         5.03919        -1.50288
| 81>    H       -7.63028         2.66299        -3.87056
| 82>    H       -8.83716         2.11140        -2.68384
| 83>    H       -7.81728         0.48766        -5.06901
| 84>    H       -9.40056         1.27368        -4.95346
| 85>    H       -8.99230        -0.07559        -3.88048
| 86>    H       -7.77494        -5.51200         0.84342
| 87>    H       -8.15598        -4.77582        -0.73065
| 88>    H      -10.01494        -4.82203         1.70059
| 89>    H      -10.17289        -5.84929         0.26661
| 90>    H      -10.39534        -4.09689         0.13828
| 91>    H       -3.98808        -5.12855        -1.43557
| 92>    H       -5.02611        -6.53014        -1.11827
| 93>    H       -3.39898        -5.02945         1.00151
| 94>    H       -3.01513        -6.61534         0.31777
| 95>    H       -4.46495        -6.40449         1.30996
| 96>    H        0.14737        -7.82821        -0.02673
| 97>    H       -0.97000        -9.77732        -0.98902
| 98>    H       -3.03414        -7.23597        -3.74079
| 99>    H       -1.89822        -5.29345        -2.78952
|100>    H       -3.66454       -13.18749        -3.46629
|101>    H       -4.92531       -11.42764        -4.94765
|102>    H       -4.13903        -9.01778        -4.44056
|103> *
|104>
|105>                          ****END OF INPUT****

CARTESIAN COORDINATES (ANGSTROEM)
---------------------------------
  C      0.401700    1.285360    0.708940
  C      1.554290    0.554700    0.792910
  C      1.573120   -0.830530    0.568430
  C      0.420670   -1.546430    0.284720
  C     -0.798130   -0.804530    0.251250
  C     -0.791560    0.608930    0.407010
  N     -1.969530   -1.450340    0.167370
  C     -3.092410   -0.767810    0.119430
  C     -3.041630    0.663400   -0.032330
  N     -1.920180    1.304410    0.187700
  F      2.718240    1.168460    1.070740
  F      2.772040   -1.443030    0.620420
  C      1.383910   -3.900360    0.316620
  C      1.048860   -5.189010   -0.108120
  C     -0.162570   -5.252880   -0.752350
  S     -0.929120   -3.694540   -0.780070
  C      0.418030   -2.962720    0.030950
  C     -4.347740   -1.489520    0.299400
  C     -4.461420   -2.807970   -0.137300
  C     -5.629990   -3.537280    0.017130
  C     -6.738930   -2.919510    0.632680
  C     -6.595090   -1.616020    1.110120
  C     -5.428110   -0.904700    0.957190
  C     -4.187270    1.467450   -0.454100
  C     -4.326920    2.768640    0.014260
  C     -5.406340    3.534470   -0.378310
  C     -6.367860    3.046540   -1.257840
  C     -6.209700    1.742540   -1.774880
  C     -5.125690    0.981240   -1.358530
  O     -7.464450    3.766890   -1.641660
  C     -7.618430    5.096050   -1.185440
  C     -8.894600    5.644160   -1.805650
  O     -7.028260    1.102050   -2.650410
  C     -8.045140    1.783320   -3.365690
  C     -8.602260    0.802790   -4.387000
  O     -7.967000   -3.449740    0.847650
  C     -8.346540   -4.720590    0.346090
  C     -9.832120   -4.884600    0.631330
  O     -5.773750   -4.831050   -0.418360
  C     -4.623520   -5.610090   -0.684940
  C     -3.821830   -5.933350    0.570240
  C     -0.803850   -6.412100   -1.330550
  C     -0.542390   -7.697300   -0.846340
  C     -1.177510   -8.793190   -1.383930
  C     -2.097910   -8.659130   -2.427980
  C     -2.343760   -7.374300   -2.923830
  C     -1.709800   -6.277730   -2.385580
  C     -2.770970   -9.817400   -2.971480
  S     -2.392600  -11.419320   -2.396260
  C     -3.535230  -12.123460   -3.463780
  C     -4.172210  -11.190580   -4.217560
  C     -3.739470   -9.880230   -3.939310
  H      0.401750    2.353320    0.845540
  H      2.302230   -3.673360    0.824940
  H      1.696750   -6.037230    0.022410
  H     -3.602810   -3.245000   -0.618390
  H     -7.444570   -1.181150    1.612320
  H     -5.350340    0.091230    1.362920
  H     -3.594730    3.166240    0.697970
  H     -5.501290    4.532560    0.017910
  H     -5.031720   -0.007850   -1.777540
  H     -6.756350    5.704190   -1.492070
  H     -7.693150    5.114450   -0.089400
  H     -8.821920    5.621410   -2.889580
  H     -9.051940    6.668260   -1.480050
  H     -9.744800    5.039190   -1.502880
  H     -7.630280    2.662990   -3.870560
  H     -8.837160    2.111400   -2.683840
  H     -7.817280    0.487660   -5.069010
  H     -9.400560    1.273680   -4.953460
  H     -8.992300   -0.075590   -3.880480
  H     -7.774940   -5.512000    0.843420
  H     -8.155980   -4.775820   -0.730650
  H    -10.014940   -4.822030    1.700590
  H    -10.172890   -5.849290    0.266610
  H    -10.395340   -4.096890    0.138280
  H     -3.988080   -5.128550   -1.435570
  H     -5.026110   -6.530140   -1.118270
  H     -3.398980   -5.029450    1.001510
  H     -3.015130   -6.615340    0.317770
  H     -4.464950   -6.404490    1.309960
  H      0.147370   -7.828210   -0.026730
  H     -0.970000   -9.777320   -0.989020
  H     -3.034140   -7.235970   -3.740790
  H     -1.898220   -5.293450   -2.789520
  H     -3.664540  -13.187490   -3.466290
  H     -4.925310  -11.427640   -4.947650
  H     -4.139030   -9.017780   -4.440560

 Total Charge           Charge          ....    0
 Multiplicity           Mult            ....    1
 Number of Electrons    NEL             ....  384
 Basis Dimension        Dim             ....  916

ORBITAL ENERGIES
----------------

  NO   OCC          E(Eh)            E(eV)
   0   2.0000     -88.971829     -2421.0465
   1   2.0000     -88.968890     -2420.9666
   2   2.0000     -24.818261      -675.3392
   3   2.0000     -24.811686      -675.1603
   4   2.0000     -19.275817      -524.5216
   5   2.0000     -19.263210      -524.1786
   6   2.0000     -19.262414      -524.1569
   7   2.0000     -19.260758      -524.1119
   8   2.0000     -14.449198      -393.1827
   9   2.0000     -14.445849      -393.0915
  10   2.0000     -10.396624      -282.9065
  11   2.0000     -10.395155      -282.8665
  12   2.0000     -10.359438      -281.8946
  13   2.0000     -10.355878      -281.7978
  14   2.0000     -10.352907      -281.7169
  15   2.0000     -10.352579      -281.7080
  16   2.0000     -10.351568      -281.6805
  17   2.0000     -10.351230      -281.6713
  18   2.0000     -10.348807      -281.6054
  19   2.0000     -10.345120      -281.5050
  20   2.0000     -10.342615      -281.4369
  21   2.0000     -10.341265      -281.4001
  22   2.0000     -10.335037      -281.2307
  23   2.0000     -10.333630      -281.1924
  24   2.0000     -10.331444      -281.1329
  25   2.0000     -10.328922      -281.0643
  26   2.0000     -10.328408      -281.0503
  27   2.0000     -10.321385      -280.8592
  28   2.0000     -10.320594      -280.8376
  29   2.0000     -10.317962      -280.7660
  30   2.0000     -10.314902      -280.6828
  31   2.0000     -10.309297      -280.5302
  32   2.0000     -10.305407      -280.4244
  33   2.0000     -10.304793      -280.4077
  34   2.0000     -10.304234      -280.3925
  35   2.0000     -10.304189      -280.3912
  36   2.0000     -10.299425      -280.2616
  37   2.0000     -10.298844      -280.2458
  38   2.0000     -10.296729      -280.1882
  39   2.0000     -10.295435      -280.1530
  40   2.0000     -10.295257      -280.1482
  41   2.0000     -10.294275      -280.1215
  42   2.0000     -10.293652      -280.1045
  43   2.0000     -10.292306      -280.0679
  44   2.0000     -10.290984      -280.0319
  45   2.0000     -10.289714      -279.9973
  46   2.0000     -10.289204      -279.9835
  47   2.0000     -10.289077      -279.9800
  48   2.0000     -10.283406      -279.8257
  49   2.0000     -10.277617      -279.6682
  50   2.0000     -10.276866      -279.6477
  51   2.0000     -10.275241      -279.6035
  52   2.0000      -8.086146      -220.0352
  53   2.0000      -8.080976      -219.8945
  54   2.0000      -6.045572      -164.5084
  55   2.0000      -6.041258      -164.3910
  56   2.0000      -6.040556      -164.3719
  57   2.0000      -6.038799      -164.3241
  58   2.0000      -6.036124      -164.2513
  59   2.0000      -6.033622      -164.1832
  60   2.0000      -1.343815       -36.5671
  61   2.0000      -1.326594       -36.0985
  62   2.0000      -1.185393       -32.2562
  63   2.0000      -1.177199       -32.0332
  64   2.0000      -1.160903       -31.5898
  65   2.0000      -1.157366       -31.4935
  66   2.0000      -1.112089       -30.2615
  67   2.0000      -1.037337       -28.2274
  68   2.0000      -1.017698       -27.6930
  69   2.0000      -1.012742       -27.5581
  70   2.0000      -0.997148       -27.1338
  71   2.0000      -0.983537       -26.7634
  72   2.0000      -0.974344       -26.5132
  73   2.0000      -0.970913       -26.4199
  74   2.0000      -0.920195       -25.0398
  75   2.0000      -0.915648       -24.9161
  76   2.0000      -0.901624       -24.5344
  77   2.0000      -0.892664       -24.2906
  78   2.0000      -0.888109       -24.1667
  79   2.0000      -0.880806       -23.9680
  80   2.0000      -0.879553       -23.9339
  81   2.0000      -0.876300       -23.8453
  82   2.0000      -0.856971       -23.3194
  83   2.0000      -0.854728       -23.2583
  84   2.0000      -0.851413       -23.1681
  85   2.0000      -0.848497       -23.0888
  86   2.0000      -0.844001       -22.9664
  87   2.0000      -0.836521       -22.7629
  88   2.0000      -0.830442       -22.5975
  89   2.0000      -0.811398       -22.0793
  90   2.0000      -0.786844       -21.4111
  91   2.0000      -0.779299       -21.2058
  92   2.0000      -0.763409       -20.7734
  93   2.0000      -0.758558       -20.6414
  94   2.0000      -0.755244       -20.5512
  95   2.0000      -0.738233       -20.0884
  96   2.0000      -0.736583       -20.0434
  97   2.0000      -0.729256       -19.8441
  98   2.0000      -0.724498       -19.7146
  99   2.0000      -0.712149       -19.3785
 100   2.0000      -0.707396       -19.2492
 101   2.0000      -0.699743       -19.0410
 102   2.0000      -0.692271       -18.8376
 103   2.0000      -0.683590       -18.6014
 104   2.0000      -0.672392       -18.2967
 105   2.0000      -0.670779       -18.2528
 106   2.0000      -0.668178       -18.1821
 107   2.0000      -0.662558       -18.0291
 108   2.0000      -0.655650       -17.8411
 109   2.0000      -0.651440       -17.7266
 110   2.0000      -0.647321       -17.6145
 111   2.0000      -0.638354       -17.3705
 112   2.0000      -0.634243       -17.2586
 113   2.0000      -0.628662       -17.1068
 114   2.0000      -0.618921       -16.8417
 115   2.0000      -0.618095       -16.8192
 116   2.0000      -0.606685       -16.5087
 117   2.0000      -0.604331       -16.4447
 118   2.0000      -0.602770       -16.4022
 119   2.0000      -0.599796       -16.3213
 120   2.0000      -0.589951       -16.0534
 121   2.0000      -0.588539       -16.0150
 122   2.0000      -0.583282       -15.8719
 123   2.0000      -0.581049       -15.8112
 124   2.0000      -0.580351       -15.7922
 125   2.0000      -0.574387       -15.6299
 126   2.0000      -0.565113       -15.3775
 127   2.0000      -0.563937       -15.3455
 128   2.0000      -0.562183       -15.2978
 129   2.0000      -0.560198       -15.2438
 130   2.0000      -0.555260       -15.1094
 131   2.0000      -0.550644       -14.9838
 132   2.0000      -0.548446       -14.9240
 133   2.0000      -0.543944       -14.8015
 134   2.0000      -0.537505       -14.6263
 135   2.0000      -0.536863       -14.6088
 136   2.0000      -0.525816       -14.3082
 137   2.0000      -0.524370       -14.2688
 138   2.0000      -0.522584       -14.2202
 139   2.0000      -0.519592       -14.1388
 140   2.0000      -0.516887       -14.0652
 141   2.0000      -0.512141       -13.9361
 142   2.0000      -0.508277       -13.8309
 143   2.0000      -0.506082       -13.7712
 144   2.0000      -0.504304       -13.7228
 145   2.0000      -0.501761       -13.6536
 146   2.0000      -0.500610       -13.6223
 147   2.0000      -0.497656       -13.5419
 148   2.0000      -0.496273       -13.5043
 149   2.0000      -0.492675       -13.4064
 150   2.0000      -0.490103       -13.3364
 151   2.0000      -0.487558       -13.2671
 152   2.0000      -0.486458       -13.2372
 153   2.0000      -0.485137       -13.2013
 154   2.0000      -0.482316       -13.1245
 155   2.0000      -0.479701       -13.0533
 156   2.0000      -0.474692       -12.9170
 157   2.0000      -0.474079       -12.9003
 158   2.0000      -0.471839       -12.8394
 159   2.0000      -0.470591       -12.8054
 160   2.0000      -0.467562       -12.7230
 161   2.0000      -0.464850       -12.6492
 162   2.0000      -0.461400       -12.5553
 163   2.0000      -0.458705       -12.4820
 164   2.0000      -0.453558       -12.3419
 165   2.0000      -0.452425       -12.3111
 166   2.0000      -0.448903       -12.2153
 167   2.0000      -0.446741       -12.1564
 168   2.0000      -0.443528       -12.0690
 169   2.0000      -0.439496       -11.9593
 170   2.0000      -0.430960       -11.7270
 171   2.0000      -0.429327       -11.6826
 172   2.0000      -0.426481       -11.6051
 173   2.0000      -0.420399       -11.4396
 174   2.0000      -0.412446       -11.2232
 175   2.0000      -0.404549       -11.0084
 176   2.0000      -0.403092       -10.9687
 177   2.0000      -0.399648       -10.8750
 178   2.0000      -0.397063       -10.8046
 179   2.0000      -0.392874       -10.6906
 180   2.0000      -0.363447        -9.8899
 181   2.0000      -0.358974        -9.7682
 182   2.0000      -0.352148        -9.5824
 183   2.0000      -0.350176        -9.5288
 184   2.0000      -0.347089        -9.4448
 185   2.0000      -0.331926        -9.0322
 186   2.0000      -0.324218        -8.8224
 187   2.0000      -0.323149        -8.7933
 188   2.0000      -0.312543        -8.5047
 189   2.0000      -0.290942        -7.9169
 190   2.0000      -0.277550        -7.5525
 191   2.0000      -0.271278        -7.3818
 192   0.0000      -0.024128        -0.6566
 193   0.0000       0.006079         0.1654
 194   0.0000       0.016252         0.4422
 195   0.0000       0.044857         1.2206
 196   0.0000       0.054328         1.4783

MULLIKEN ATOMIC CHARGES
-----------------------
   0 C :   -0.108787
   1 C :    0.275000
   2 C :    0.155708
   3 C :    0.069396
   4 C :   -0.004674
   5 C :    0.002883
   6 N :   -0.089926
   7 C :    0.027874
   8 C :   -0.003448
   9 N :   -0.057152
  10 F :   -0.197598
  11 F :   -0.191899
  12 C :   -0.007413
  13 C :   -0.017335
  14 C :   -0.059806
  15 S :    0.132446
  16 C :   -0.109562
  17 C :   -0.018824
  18 C :   -0.071644
  19 C :    0.185139
  20 C :    0.178600
  21 C :   -0.072030
  22 C :    0.046127
  23 C :   -0.013895
  24 C :    0.006535
  25 C :   -0.109865
  26 C :    0.178922
  27 C :    0.168533
  28 C :   -0.023096
  29 O :   -0.360308
  30 C :    0.100594
  31 C :   -0.032265
  32 O :   -0.346176
  33 C :    0.144826
  34 C :   -0.039983
  35 O :   -0.341083
  36 C :    0.139700
  37 C :   -0.040058
  38 O :   -0.367391
  39 C :    0.147516
  40 C :   -0.070673
  41 C :    0.059954
  42 C :   -0.028920
  43 C :   -0.051940
  44 C :    0.118669
  45 C :   -0.050804
  46 C :   -0.036715
  47 C :   -0.112181
  48 S :    0.084658
  49 C :   -0.079172
  50 C :    0.010297
  51 C :   -0.022412
  52 H :    0.016972
  53 H :    0.019724
  54 H :    0.005482
  55 H :   -0.030943
  56 H :    0.008497
  57 H :    0.010671
  58 H :    0.002200
  59 H :    0.000669
  60 H :    0.012410
  61 H :    0.036657
  62 H :    0.036746
  63 H :    0.045625
  64 H :    0.038516
  65 H :    0.046409
  66 H :    0.023479
  67 H :    0.031733
  68 H :    0.038042
  69 H :    0.029667
  70 H :    0.041781
  71 H :    0.029791
  72 H :    0.035900
  73 H :    0.039679
  74 H :    0.030805
  75 H :    0.038585
  76 H :    0.014403
  77 H :    0.038117
  78 H :    0.048676
  79 H :    0.049927
  80 H :    0.038336
  81 H :    0.005355
  82 H :    0.015764
  83 H :    0.001890
  84 H :    0.015237
  85 H :    0.056289
  86 H :    0.019495
  87 H :    0.011074
Sum of atomic charges:    0.0000000

LOEWDIN ATOMIC CHARGES
----------------------
   0 C :   -0.047328
   1 C :    0.069119
   2 C :    0.069540
   3 C :   -0.060289
   4 C :   -0.017200
   5 C :   -0.015253
   6 N :   -0.062338
   7 C :    0.022008
   8 C :    0.017931
   9 N :   -0.043839
  10 F :   -0.061894
  11 F :   -0.053330
  12 C :   -0.046686
  13 C :   -0.067040
  14 C :   -0.170383
  15 S :    0.478157
  16 C :   -0.174764
  17 C :   -0.066364
  18 C :   -0.038876
  19 C :    0.022163
  20 C :    0.050534
  21 C :   -0.043513
  22 C :   -0.014025
  23 C :   -0.060879
  24 C :   -0.015388
  25 C :   -0.071451
  26 C :    0.029888
  27 C :    0.038882
  28 C :   -0.021105
  29 O :   -0.110485
  30 C :    0.079156
  31 C :   -0.064674
  32 O :   -0.113638
  33 C :    0.080681
  34 C :   -0.069215
  35 O :   -0.108147
  36 C :    0.081299
  37 C :   -0.069955
  38 O :   -0.115225
  39 C :    0.078142
  40 C :   -0.075511
  41 C :   -0.044303
  42 C :   -0.012772
  43 C :   -0.024823
  44 C :   -0.039507
  45 C :   -0.014470
  46 C :   -0.024304
  47 C :   -0.169194
  48 S :    0.423706
  49 C :   -0.184133
  50 C :   -0.067895
  51 C :   -0.063945
  52 H :    0.049335
  53 H :    0.031771
  54 H :    0.029721
  55 H :    0.021128
  56 H :    0.036373
  57 H :    0.033287
  58 H :    0.031219
  59 H :    0.031642
  60 H :    0.038631
  61 H :    0.015320
  62 H :    0.015203
  63 H :    0.031349
  64 H :    0.033274
  65 H :    0.031633
  66 H :    0.011303
  67 H :    0.012310
  68 H :    0.028286
  69 H :    0.029152
  70 H :    0.029788
  71 H :    0.013158
  72 H :    0.015329
  73 H :    0.028726
  74 H :    0.029714
  75 H :    0.028339
  76 H :    0.005382
  77 H :    0.026469
  78 H :    0.028643
  79 H :    0.035444
  80 H :    0.029396
  81 H :    0.032528
  82 H :    0.023811
  83 H :    0.030365
  84 H :    0.025445
  85 H :    0.026727
  86 H :    0.033163
  87 H :    0.029568

  Mayer bond orders larger than 0.100000
B(  0-C ,  1-C ) :   1.4173 B(  0-C ,  3-C ) :   0.1108 B(  0-C ,  5-C ) :   1.2070
B(  0-C , 52-H ) :   1.0324 B(  1-C ,  2-C ) :   1.1974 B(  1-C , 10-F ) :   1.0764
B(  2-C ,  3-C ) :   1.4040 B(  2-C , 11-F ) :   1.1141 B(  3-C ,  4-C ) :   1.1806
B(  3-C , 16-C ) :   1.0749 B(  4-C ,  5-C ) :   1.2308 B(  4-C ,  6-N ) :   1.4223
B(  5-C ,  9-N ) :   1.3870 B(  6-N ,  7-C ) :   1.6685 B(  7-C ,  8-C ) :   1.1435
B(  7-C , 17-C ) :   1.0031 B(  8-C ,  9-N ) :   1.7036 B(  8-C , 23-C ) :   0.9973
B( 12-C , 13-C ) :   1.2642 B( 12-C , 16-C ) :   1.5309 B( 12-C , 53-H ) :   0.9946
B( 13-C , 14-C ) :   1.5338 B( 13-C , 54-H ) :   0.9969 B( 14-C , 15-S ) :   1.1314
B( 14-C , 41-C ) :   1.0346 B( 15-S , 16-C ) :   1.1394 B( 17-C , 18-C ) :   1.3427
B( 17-C , 22-C ) :   1.3638 B( 18-C , 19-C ) :   1.3126 B( 18-C , 55-H ) :   1.0069
B( 19-C , 20-C ) :   1.2942 B( 19-C , 38-O ) :   1.0874 B( 20-C , 21-C ) :   1.3871
B( 20-C , 35-O ) :   1.1529 B( 21-C , 22-C ) :   1.3976 B( 21-C , 56-H ) :   0.9982
B( 22-C , 57-H ) :   0.9875 B( 23-C , 24-C ) :   1.3860 B( 23-C , 28-C ) :   1.3403
B( 24-C , 25-C ) :   1.3356 B( 24-C , 58-H ) :   1.0012 B( 25-C , 26-C ) :   1.3139
B( 25-C , 59-H ) :   1.0006 B( 26-C , 27-C ) :   1.3002 B( 26-C , 29-O ) :   1.1029
B( 27-C , 28-C ) :   1.4295 B( 27-C , 32-O ) :   1.1434 B( 28-C , 60-H ) :   0.9931
B( 29-O , 30-C ) :   0.9326 B( 30-C , 31-C ) :   1.0868 B( 30-C , 61-H ) :   0.9531
B( 30-C , 62-H ) :   0.9526 B( 31-C , 63-H ) :   0.9726 B( 31-C , 64-H ) :   0.9655
B( 31-C , 65-H ) :   0.9722 B( 32-O , 33-C ) :   0.9136 B( 33-C , 34-C ) :   1.0818
B( 33-C , 66-H ) :   0.9602 B( 33-C , 67-H ) :   0.9600 B( 34-C , 68-H ) :   0.9713
B( 34-C , 69-H ) :   0.9671 B( 34-C , 70-H ) :   0.9718 B( 35-O , 36-C ) :   0.9100
B( 36-C , 37-C ) :   1.0792 B( 36-C , 71-H ) :   0.9617 B( 36-C , 72-H ) :   0.9608
B( 37-C , 73-H ) :   0.9709 B( 37-C , 74-H ) :   0.9676 B( 37-C , 75-H ) :   0.9715
B( 38-O , 39-C ) :   0.9324 B( 39-C , 40-C ) :   1.0992 B( 39-C , 76-H ) :   0.9464
B( 39-C , 77-H ) :   0.9569 B( 40-C , 78-H ) :   0.9657 B( 40-C , 79-H ) :   0.9611
B( 40-C , 80-H ) :   0.9640 B( 41-C , 42-C ) :   1.3685 B( 41-C , 46-C ) :   1.3534
B( 42-C , 43-C ) :   1.4263 B( 42-C , 81-H ) :   0.9950 B( 43-C , 44-C ) :   1.3395
B( 43-C , 82-H ) :   0.9862 B( 44-C , 45-C ) :   1.3619 B( 44-C , 47-C ) :   1.0677
B( 45-C , 46-C ) :   1.4171 B( 45-C , 83-H ) :   0.9965 B( 46-C , 84-H ) :   0.9842
B( 47-C , 48-S ) :   1.1425 B( 47-C , 51-C ) :   1.5640 B( 48-S , 49-C ) :   1.1637
B( 49-C , 50-C ) :   1.5824 B( 49-C , 85-H ) :   0.9748 B( 50-C , 51-C ) :   1.2591
B( 50-C , 86-H ) :   0.9953 B( 51-C , 87-H ) :   0.9901

-----------------------------------------------------------------------------
         ABSORPTION SPECTRUM VIA TRANSITION ELECTRIC DIPOLE MOMENTS
-----------------------------------------------------------------------------
State   Energy  Wavelength   fosc         T2         TX        TY        TZ
        (cm-1)    (nm)                  (au**2)     (au)      (au)      (au)
-----------------------------------------------------------------------------
   0   26834.6    372.7   0.939479367  11.52569   0.68756  -3.16122  -1.02940
   1   31319.3    319.3   0.250129316   2.62923   1.53880   0.51042   0.02821
   2   32183.6    310.7   0.613644982   6.27709   2.01963   1.26734   0.76944
   3   33923.7    294.8   0.963405462   9.34936   0.99119   2.86884   0.36966
   4   36957.9    270.6   0.067596177   0.60213   0.58221  -0.04905   0.51064
   5   38207.1    261.7   0.096518732   0.83165   0.22885   0.74667  -0.47092
   6   39713.5    251.8   0.378147721   3.13472  -1.75294   0.04358  -0.24498

Dispersion correction           -0.051454376
FINAL SINGLE POINT ENERGY     -3026.112296528157

DIPOLE MOMENT
-------------
                                X             Y             Z
Electronic contribution:     79.19527      -5.09826      15.43165
Nuclear contribution   :    -80.86993       5.20593     -15.98097
                        -----------------------------------------
Total Dipole Moment    :     -1.67465       0.10767      -0.54932
                        -----------------------------------------
Magnitude (a.u.)       :      1.76573
Magnitude (Debye)      :      4.48813

Rotational constants in cm-1:     0.001906     0.000985     0.000714
Rotational constants in MHz :    57.152567    29.530606    21.412874

                             ****ORCA TERMINATED NORMALLY****
TOTAL RUN TIME: 0 days 0 hours 6 minutes 26 seconds 500 msec
