                         Program Version 4.2.0 -  RELEASE  -
|  1> # ORCA input file
|  2> # SCF done       -150.612747475935          0.000246981856
|  3> ! wb97x-d3 def2-SVP def2/J RIJCOSX Grid4 TightSCF
|  4> %maxcore 5000
|  5> %tddft
|  6>     Mode sTDA
|  7>     Ethresh 5.0
|  8>     maxcore 5000
|  9> end
| 10>
| 11> %pal
| 12>   nprocs 6
| 13>   end
| 14> * xyz 0 1
| 15>    C        0.63959         1.47137        -0.16889
| 16>    C        1.81830         0.77799        -0.12969
| 17>    C        1.86568        -0.62513        -0.09286
| 18>    C        0.71344        -1.39703        -0.09734
| 19>    C       -0.51852        -0.67949        -0.16101
| 20>    C       -0.55937         0.73833        -0.19122
| 21>    N       -1.66095        -1.37499        -0.14808
| 22>    C       -2.81671        -0.75308        -0.17319
| 23>    C       -2.85197         0.67637        -0.28683
| 24>    N       -1.74154         1.37649        -0.27056
| 25>    F        2.98379         1.44751        -0.11440
| 26>    F        3.08467        -1.19283        -0.03269
| 27>    C        1.74099        -3.72053         0.04323
| 28>    C        1.34693        -5.04881         0.22205
| 29>    C       -0.01439        -5.19676         0.34297
| 30>    S       -0.82442        -3.65846         0.20050
| 31>    C        0.68981        -2.82979         0.01162
| 32>    C       -4.00905        -1.59108        -0.04632
| 33>    C       -4.07624        -2.78172        -0.76562
| 34>    C       -5.16144        -3.63878        -0.66989
| 35>    C       -6.20507        -3.30749         0.22047
| 36>    C       -6.10952        -2.12474         0.95426
| 37>    C       -5.04347        -1.26366         0.82289
| 38>    C       -4.09933         1.42413        -0.45552
| 39>    C       -4.24801         2.66244         0.15670
| 40>    C       -5.42428         3.37107         0.01137
| 41>    C       -6.47782         2.88843        -0.75879
| 42>    C       -6.31550         1.65559        -1.42636
| 43>    C       -5.13303         0.94831        -1.25438
| 44>    O       -7.66784         3.54529        -0.89697
| 45>    C       -7.84389         4.80510        -0.27981
| 46>    C       -9.24013         5.29314        -0.63482
| 47>    O       -7.21809         1.03579        -2.23177
| 48>    C       -8.33991         1.72074        -2.76430
| 49>    C       -8.96554         0.80622        -3.80706
| 50>    O       -7.32503        -4.02616         0.48204
| 51>    C       -7.70295        -5.15144        -0.29333
| 52>    C       -9.05798        -5.61115         0.22420
| 53>    O       -5.27523        -4.79463        -1.39688
| 54>    C       -4.44143        -5.01212        -2.51980
| 55>    C       -3.14068        -5.72871        -2.17397
| 56>    C       -0.79025        -6.39206         0.57252
| 57>    C       -2.11035        -6.30419         1.03513
| 58>    C       -2.87852        -7.41896         1.27359
| 59>    C       -2.36619        -8.70492         1.06437
| 60>    C       -1.05656        -8.81316         0.59225
| 61>    C       -0.30297        -7.68632         0.35723
| 62>    C       -3.15242        -9.88734         1.33054
| 63>    S       -2.49013       -11.47778         1.06489
| 64>    C       -3.94022       -12.22087         1.59762
| 65>    C       -4.88021       -11.30843         1.95836
| 66>    C       -4.43490        -9.98216         1.80703
| 67>    F        0.94892        -7.86995        -0.11542
| 68>    H        0.62123         2.54758        -0.18817
| 69>    H        2.77033        -3.43177        -0.05785
| 70>    H        2.04989        -5.85896         0.28041
| 71>    H       -3.25017        -3.01701        -1.41530
| 72>    H       -6.91852        -1.90205         1.63164
| 73>    H       -5.00157        -0.35842         1.40770
| 74>    H       -3.44523         3.05646         0.75854
| 75>    H       -5.52141         4.31807         0.51723
| 76>    H       -5.04071         0.01473        -1.78550
| 77>    H       -7.08958         5.51504        -0.64577
| 78>    H       -7.74231         4.71045         0.81001
| 79>    H       -9.34130         5.38087        -1.71317
| 80>    H       -9.41825         6.26303        -0.17967
| 81>    H       -9.98362         4.58798        -0.27343
| 82>    H       -8.02411         2.66329        -3.22581
| 83>    H       -9.06289         1.94327        -1.97223
| 84>    H       -8.24889         0.59310        -4.59565
| 85>    H       -9.84074         1.28320        -4.23884
| 86>    H       -9.26035        -0.13220        -3.34571
| 87>    H       -6.96240        -5.95192        -0.19129
| 88>    H       -7.77514        -4.87511        -1.35124
| 89>    H       -8.98535        -5.87127         1.27666
| 90>    H       -9.39175        -6.47951        -0.33646
| 91>    H       -9.78828        -4.81381         0.11608
| 92>    H       -4.24291        -4.06682        -3.03805
| 93>    H       -5.04101        -5.64784        -3.18041
| 94>    H       -2.51427        -5.12102        -1.52749
| 95>    H       -2.59518        -5.94891        -3.08759
| 96>    H       -3.35703        -6.66157        -1.65931
| 97>    H       -2.52690        -5.32392         1.21396
| 98>    H       -3.88740        -7.29251         1.63154
| 99>    H       -0.61710        -9.78123         0.40503
|100>    H       -4.00742       -13.29057         1.61120
|101>    H       -5.85763       -11.57166         2.32155
|102>    H       -5.04673        -9.13197         2.04722
|103> *
|104>
|105>                          ****END OF INPUT****

CARTESIAN COORDINATES (ANGSTROEM)
---------------------------------
  C      0.639590    1.471370   -0.168890
  C      1.818300    0.777990   -0.129690
  C      1.865680   -0.625130   -0.092860
  C      0.713440   -1.397030   -0.097340
  C     -0.518520   -0.679490   -0.161010
  C     -0.559370    0.738330   -0.191220
  N     -1.660950   -1.374990   -0.148080
  C     -2.816710   -0.753080   -0.173190
  C     -2.851970    0.676370   -0.286830
  N     -1.741540    1.376490   -0.270560
  F      2.983790    1.447510   -0.114400
  F      3.084670   -1.192830   -0.032690
  C      1.740990   -3.720530    0.043230
  C      1.346930   -5.048810    0.222050
  C     -0.014390   -5.196760    0.342970
  S     -0.824420   -3.658460    0.200500
  C      0.689810   -2.829790    0.011620
  C     -4.009050   -1.591080   -0.046320
  C     -4.076240   -2.781720   -0.765620
  C     -5.161440   -3.638780   -0.669890
  C     -6.205070   -3.307490    0.220470
  C     -6.109520   -2.124740    0.954260
  C     -5.043470   -1.263660    0.822890
  C     -4.099330    1.424130   -0.455520
  C     -4.248010    2.662440    0.156700
  C     -5.424280    3.371070    0.011370
  C     -6.477820    2.888430   -0.758790
  C     -6.315500    1.655590   -1.426360
  C     -5.133030    0.948310   -1.254380
  O     -7.667840    3.545290   -0.896970
  C     -7.843890    4.805100   -0.279810
  C     -9.240130    5.293140   -0.634820
  O     -7.218090    1.035790   -2.231770
  C     -8.339910    1.720740   -2.764300
  C     -8.965540    0.806220   -3.807060
  O     -7.325030   -4.026160    0.482040
  C     -7.702950   -5.151440   -0.293330
  C     -9.057980   -5.611150    0.224200
  O     -5.275230   -4.794630   -1.396880
  C     -4.441430   -5.012120   -2.519800
  C     -3.140680   -5.728710   -2.173970
  C     -0.790250   -6.392060    0.572520
  C     -2.110350   -6.304190    1.035130
  C     -2.878520   -7.418960    1.273590
  C     -2.366190   -8.704920    1.064370
  C     -1.056560   -8.813160    0.592250
  C     -0.302970   -7.686320    0.357230
  C     -3.152420   -9.887340    1.330540
  S     -2.490130  -11.477780    1.064890
  C     -3.940220  -12.220870    1.597620
  C     -4.880210  -11.308430    1.958360
  C     -4.434900   -9.982160    1.807030
  F      0.948920   -7.869950   -0.115420
  H      0.621230    2.547580   -0.188170
  H      2.770330   -3.431770   -0.057850
  H      2.049890   -5.858960    0.280410
  H     -3.250170   -3.017010   -1.415300
  H     -6.918520   -1.902050    1.631640
  H     -5.001570   -0.358420    1.407700
  H     -3.445230    3.056460    0.758540
  H     -5.521410    4.318070    0.517230
  H     -5.040710    0.014730   -1.785500
  H     -7.089580    5.515040   -0.645770
  H     -7.742310    4.710450    0.810010
  H     -9.341300    5.380870   -1.713170
  H     -9.418250    6.263030   -0.179670
  H     -9.983620    4.587980   -0.273430
  H     -8.024110    2.663290   -3.225810
  H     -9.062890    1.943270   -1.972230
  H     -8.248890    0.593100   -4.595650
  H     -9.840740    1.283200   -4.238840
  H     -9.260350   -0.132200   -3.345710
  H     -6.962400   -5.951920   -0.191290
  H     -7.775140   -4.875110   -1.351240
  H     -8.985350   -5.871270    1.276660
  H     -9.391750   -6.479510   -0.336460
  H     -9.788280   -4.813810    0.116080
  H     -4.242910   -4.066820   -3.038050
  H     -5.041010   -5.647840   -3.180410
  H     -2.514270   -5.121020   -1.527490
  H     -2.595180   -5.948910   -3.087590
  H     -3.357030   -6.661570   -1.659310
  H     -2.526900   -5.323920    1.213960
  H     -3.887400   -7.292510    1.631540
  H     -0.617100   -9.781230    0.405030
  H     -4.007420  -13.290570    1.611200
  H     -5.857630  -11.571660    2.321550
  H     -5.046730   -9.131970    2.047220

 Total Charge           Charge          ....    0
 Multiplicity           Mult            ....    1
 Number of Electrons    NEL             ....  392
 Basis Dimension        Dim             ....  925

ORBITAL ENERGIES
----------------

  NO   OCC          E(Eh)            E(eV)
   0   2.0000     -88.971544     -2421.0388
   1   2.0000     -88.961934     -2420.7773
   2   2.0000     -24.820255      -675.3935
   3   2.0000     -24.813725      -675.2158
   4   2.0000     -24.804025      -674.9518
   5   2.0000     -19.277736      -524.5739
   6   2.0000     -19.269545      -524.3510
   7   2.0000     -19.265489      -524.2406
   8   2.0000     -19.262569      -524.1612
   9   2.0000     -14.454255      -393.3203
  10   2.0000     -14.449777      -393.1984
  11   2.0000     -10.399046      -282.9724
  12   2.0000     -10.398332      -282.9530
  13   2.0000     -10.382558      -282.5238
  14   2.0000     -10.361370      -281.9472
  15   2.0000     -10.357855      -281.8516
  16   2.0000     -10.357490      -281.8416
  17   2.0000     -10.356436      -281.8129
  18   2.0000     -10.355813      -281.7960
  19   2.0000     -10.354195      -281.7520
  20   2.0000     -10.352871      -281.7159
  21   2.0000     -10.347751      -281.5766
  22   2.0000     -10.347200      -281.5616
  23   2.0000     -10.346744      -281.5492
  24   2.0000     -10.337721      -281.3037
  25   2.0000     -10.337051      -281.2855
  26   2.0000     -10.333605      -281.1917
  27   2.0000     -10.328757      -281.0598
  28   2.0000     -10.324978      -280.9569
  29   2.0000     -10.320763      -280.8422
  30   2.0000     -10.320590      -280.8375
  31   2.0000     -10.315015      -280.6858
  32   2.0000     -10.314042      -280.6593
  33   2.0000     -10.311225      -280.5827
  34   2.0000     -10.304079      -280.3882
  35   2.0000     -10.302933      -280.3571
  36   2.0000     -10.300288      -280.2851
  37   2.0000     -10.299536      -280.2646
  38   2.0000     -10.299323      -280.2588
  39   2.0000     -10.299209      -280.2557
  40   2.0000     -10.298651      -280.2405
  41   2.0000     -10.296804      -280.1903
  42   2.0000     -10.296371      -280.1785
  43   2.0000     -10.295050      -280.1426
  44   2.0000     -10.293374      -280.0969
  45   2.0000     -10.292620      -280.0764
  46   2.0000     -10.291482      -280.0455
  47   2.0000     -10.291069      -280.0342
  48   2.0000     -10.288061      -279.9524
  49   2.0000     -10.284865      -279.8654
  50   2.0000     -10.280505      -279.7468
  51   2.0000     -10.279758      -279.7264
  52   2.0000     -10.279692      -279.7246
  53   2.0000      -8.085905      -220.0287
  54   2.0000      -8.072775      -219.6714
  55   2.0000      -6.045297      -164.5009
  56   2.0000      -6.041045      -164.3852
  57   2.0000      -6.038546      -164.3172
  58   2.0000      -6.032682      -164.1576
  59   2.0000      -6.027778      -164.0242
  60   2.0000      -6.025300      -163.9568
  61   2.0000      -1.346219       -36.6325
  62   2.0000      -1.328845       -36.1597
  63   2.0000      -1.323721       -36.0203
  64   2.0000      -1.187366       -32.3099
  65   2.0000      -1.181916       -32.1616
  66   2.0000      -1.162649       -31.6373
  67   2.0000      -1.161848       -31.6155
  68   2.0000      -1.117016       -30.3955
  69   2.0000      -1.042479       -28.3673
  70   2.0000      -1.016515       -27.6608
  71   2.0000      -1.010715       -27.5030
  72   2.0000      -0.997607       -27.1463
  73   2.0000      -0.983395       -26.7595
  74   2.0000      -0.976353       -26.5679
  75   2.0000      -0.974865       -26.5274
  76   2.0000      -0.920651       -25.0522
  77   2.0000      -0.918997       -25.0072
  78   2.0000      -0.903814       -24.5940
  79   2.0000      -0.894177       -24.3318
  80   2.0000      -0.890072       -24.2201
  81   2.0000      -0.886267       -24.1166
  82   2.0000      -0.883015       -24.0280
  83   2.0000      -0.872578       -23.7441
  84   2.0000      -0.857399       -23.3310
  85   2.0000      -0.855113       -23.2688
  86   2.0000      -0.850967       -23.1560
  87   2.0000      -0.849210       -23.1082
  88   2.0000      -0.844486       -22.9796
  89   2.0000      -0.839289       -22.8382
  90   2.0000      -0.832804       -22.6618
  91   2.0000      -0.811886       -22.0925
  92   2.0000      -0.789828       -21.4923
  93   2.0000      -0.782317       -21.2879
  94   2.0000      -0.766139       -20.8477
  95   2.0000      -0.761621       -20.7247
  96   2.0000      -0.758250       -20.6330
  97   2.0000      -0.740162       -20.1408
  98   2.0000      -0.737073       -20.0568
  99   2.0000      -0.731914       -19.9164
 100   2.0000      -0.730706       -19.8835
 101   2.0000      -0.716691       -19.5021
 102   2.0000      -0.709385       -19.3033
 103   2.0000      -0.702329       -19.1113
 104   2.0000      -0.697040       -18.9674
 105   2.0000      -0.687225       -18.7004
 106   2.0000      -0.681024       -18.5316
 107   2.0000      -0.673370       -18.3233
 108   2.0000      -0.671921       -18.2839
 109   2.0000      -0.668822       -18.1996
 110   2.0000      -0.657030       -17.8787
 111   2.0000      -0.652955       -17.7678
 112   2.0000      -0.648628       -17.6501
 113   2.0000      -0.642374       -17.4799
 114   2.0000      -0.635431       -17.2910
 115   2.0000      -0.631824       -17.1928
 116   2.0000      -0.621504       -16.9120
 117   2.0000      -0.617051       -16.7908
 118   2.0000      -0.610760       -16.6196
 119   2.0000      -0.608260       -16.5516
 120   2.0000      -0.604551       -16.4507
 121   2.0000      -0.604113       -16.4387
 122   2.0000      -0.603499       -16.4220
 123   2.0000      -0.598387       -16.2829
 124   2.0000      -0.593682       -16.1549
 125   2.0000      -0.590836       -16.0775
 126   2.0000      -0.587210       -15.9788
 127   2.0000      -0.582568       -15.8525
 128   2.0000      -0.581911       -15.8346
 129   2.0000      -0.577031       -15.7018
 130   2.0000      -0.567133       -15.4325
 131   2.0000      -0.565971       -15.4008
 132   2.0000      -0.561429       -15.2773
 133   2.0000      -0.556141       -15.1334
 134   2.0000      -0.552207       -15.0263
 135   2.0000      -0.550143       -14.9701
 136   2.0000      -0.547684       -14.9032
 137   2.0000      -0.545692       -14.8490
 138   2.0000      -0.539986       -14.6938
 139   2.0000      -0.531222       -14.4553
 140   2.0000      -0.525421       -14.2974
 141   2.0000      -0.521807       -14.1991
 142   2.0000      -0.519903       -14.1473
 143   2.0000      -0.518244       -14.1021
 144   2.0000      -0.513007       -13.9596
 145   2.0000      -0.512439       -13.9442
 146   2.0000      -0.509412       -13.8618
 147   2.0000      -0.507574       -13.8118
 148   2.0000      -0.505609       -13.7583
 149   2.0000      -0.504140       -13.7183
 150   2.0000      -0.501125       -13.6363
 151   2.0000      -0.499754       -13.5990
 152   2.0000      -0.498277       -13.5588
 153   2.0000      -0.496982       -13.5236
 154   2.0000      -0.490147       -13.3376
 155   2.0000      -0.489780       -13.3276
 156   2.0000      -0.488179       -13.2840
 157   2.0000      -0.486380       -13.2351
 158   2.0000      -0.484371       -13.1804
 159   2.0000      -0.481564       -13.1040
 160   2.0000      -0.477999       -13.0070
 161   2.0000      -0.476110       -12.9556
 162   2.0000      -0.473936       -12.8964
 163   2.0000      -0.468605       -12.7514
 164   2.0000      -0.468174       -12.7397
 165   2.0000      -0.464981       -12.6528
 166   2.0000      -0.462164       -12.5761
 167   2.0000      -0.460773       -12.5383
 168   2.0000      -0.457271       -12.4430
 169   2.0000      -0.455070       -12.3831
 170   2.0000      -0.450944       -12.2708
 171   2.0000      -0.447999       -12.1907
 172   2.0000      -0.444891       -12.1061
 173   2.0000      -0.444535       -12.0964
 174   2.0000      -0.434558       -11.8249
 175   2.0000      -0.432711       -11.7747
 176   2.0000      -0.429479       -11.6867
 177   2.0000      -0.426885       -11.6161
 178   2.0000      -0.415457       -11.3052
 179   2.0000      -0.409172       -11.1341
 180   2.0000      -0.403607       -10.9827
 181   2.0000      -0.400720       -10.9042
 182   2.0000      -0.397533       -10.8174
 183   2.0000      -0.387543       -10.5456
 184   2.0000      -0.363600        -9.8941
 185   2.0000      -0.352410        -9.5896
 186   2.0000      -0.351164        -9.5556
 187   2.0000      -0.342987        -9.3331
 188   2.0000      -0.339042        -9.2258
 189   2.0000      -0.334613        -9.1053
 190   2.0000      -0.328647        -8.9429
 191   2.0000      -0.326766        -8.8918
 192   2.0000      -0.314673        -8.5627
 193   2.0000      -0.293234        -7.9793
 194   2.0000      -0.282832        -7.6963
 195   2.0000      -0.268571        -7.3082
 196   0.0000      -0.028646        -0.7795
 197   0.0000       0.006316         0.1719
 198   0.0000       0.019281         0.5247
 199   0.0000       0.045797         1.2462
 200   0.0000       0.062822         1.7095

MULLIKEN ATOMIC CHARGES
-----------------------
   0 C :   -0.118466
   1 C :    0.281117
   2 C :    0.150525
   3 C :    0.078830
   4 C :    0.005059
   5 C :    0.009768
   6 N :   -0.113946
   7 C :    0.041295
   8 C :    0.005534
   9 N :   -0.048159
  10 F :   -0.196423
  11 F :   -0.189455
  12 C :   -0.013303
  13 C :   -0.019634
  14 C :   -0.042912
  15 S :    0.117899
  16 C :   -0.105562
  17 C :   -0.058441
  18 C :   -0.084168
  19 C :    0.179373
  20 C :    0.180826
  21 C :   -0.070651
  22 C :    0.058222
  23 C :   -0.018146
  24 C :    0.012612
  25 C :   -0.113982
  26 C :    0.178270
  27 C :    0.170404
  28 C :   -0.020286
  29 O :   -0.359636
  30 C :    0.101002
  31 C :   -0.032558
  32 O :   -0.346831
  33 C :    0.143147
  34 C :   -0.040391
  35 O :   -0.342621
  36 C :    0.137758
  37 C :   -0.043012
  38 O :   -0.366864
  39 C :    0.127908
  40 C :   -0.038634
  41 C :    0.010357
  42 C :   -0.041691
  43 C :   -0.042488
  44 C :    0.140550
  45 C :   -0.127574
  46 C :    0.251070
  47 C :   -0.118542
  48 S :    0.088711
  49 C :   -0.079753
  50 C :    0.013142
  51 C :   -0.019441
  52 F :   -0.206522
  53 H :    0.016473
  54 H :    0.019378
  55 H :    0.014652
  56 H :   -0.006326
  57 H :    0.011046
  58 H :    0.009409
  59 H :    0.001704
  60 H :    0.001706
  61 H :    0.009394
  62 H :    0.036850
  63 H :    0.036784
  64 H :    0.045620
  65 H :    0.038737
  66 H :    0.046711
  67 H :    0.023674
  68 H :    0.033612
  69 H :    0.037958
  70 H :    0.030504
  71 H :    0.041196
  72 H :    0.036714
  73 H :    0.028610
  74 H :    0.039007
  75 H :    0.033196
  76 H :    0.040589
  77 H :    0.031038
  78 H :    0.037087
  79 H :    0.022251
  80 H :    0.039318
  81 H :    0.046831
  82 H :    0.023822
  83 H :    0.000609
  84 H :    0.020460
  85 H :    0.056956
  86 H :    0.018131
  87 H :    0.013011
Sum of atomic charges:   -0.0000000

LOEWDIN ATOMIC CHARGES
----------------------
   0 C :   -0.049800
   1 C :    0.072377
   2 C :    0.069386
   3 C :   -0.055541
   4 C :   -0.016139
   5 C :   -0.013132
   6 N :   -0.057614
   7 C :    0.024416
   8 C :    0.017595
   9 N :   -0.043754
  10 F :   -0.060297
  11 F :   -0.050704
  12 C :   -0.047667
  13 C :   -0.062492
  14 C :   -0.174434
  15 S :    0.482192
  16 C :   -0.180712
  17 C :   -0.062112
  18 C :   -0.048114
  19 C :    0.022863
  20 C :    0.046818
  21 C :   -0.040798
  22 C :   -0.015879
  23 C :   -0.059791
  24 C :   -0.015025
  25 C :   -0.071511
  26 C :    0.030044
  27 C :    0.038072
  28 C :   -0.021399
  29 O :   -0.110050
  30 C :    0.079444
  31 C :   -0.064609
  32 O :   -0.114392
  33 C :    0.080617
  34 C :   -0.069313
  35 O :   -0.110627
  36 C :    0.080920
  37 C :   -0.070266
  38 O :   -0.113979
  39 C :    0.078981
  40 C :   -0.073554
  41 C :   -0.072431
  42 C :   -0.006539
  43 C :   -0.027200
  44 C :   -0.030654
  45 C :   -0.057653
  46 C :    0.102913
  47 C :   -0.169659
  48 S :    0.426078
  49 C :   -0.183461
  50 C :   -0.067896
  51 C :   -0.060868
  52 F :   -0.068688
  53 H :    0.049788
  54 H :    0.030525
  55 H :    0.028864
  56 H :    0.029105
  57 H :    0.037059
  58 H :    0.033349
  59 H :    0.031668
  60 H :    0.031840
  61 H :    0.037849
  62 H :    0.015354
  63 H :    0.015337
  64 H :    0.031355
  65 H :    0.033423
  66 H :    0.031762
  67 H :    0.011643
  68 H :    0.012577
  69 H :    0.028237
  70 H :    0.029442
  71 H :    0.029547
  72 H :    0.013487
  73 H :    0.013932
  74 H :    0.028488
  75 H :    0.030269
  76 H :    0.029028
  77 H :    0.014205
  78 H :    0.024225
  79 H :    0.013975
  80 H :    0.034930
  81 H :    0.031954
  82 H :    0.028958
  83 H :    0.031280
  84 H :    0.032121
  85 H :    0.026953
  86 H :    0.032924
  87 H :    0.030586

  Mayer bond orders larger than 0.100000
B(  0-C ,  1-C ) :   1.4148 B(  0-C ,  3-C ) :   0.1098 B(  0-C ,  5-C ) :   1.2019
B(  0-C , 53-H ) :   1.0355 B(  1-C ,  2-C ) :   1.1983 B(  1-C , 10-F ) :   1.0767
B(  2-C ,  3-C ) :   1.3842 B(  2-C , 11-F ) :   1.1164 B(  3-C ,  4-C ) :   1.1751
B(  3-C , 16-C ) :   1.1100 B(  4-C ,  5-C ) :   1.2387 B(  4-C ,  6-N ) :   1.4049
B(  5-C ,  9-N ) :   1.3999 B(  6-N ,  7-C ) :   1.6380 B(  7-C ,  8-C ) :   1.1753
B(  7-C , 17-C ) :   0.9888 B(  8-C ,  9-N ) :   1.6918 B(  8-C , 23-C ) :   0.9915
B( 12-C , 13-C ) :   1.2585 B( 12-C , 16-C ) :   1.5072 B( 12-C , 54-H ) :   0.9960
B( 13-C , 14-C ) :   1.5260 B( 13-C , 55-H ) :   0.9983 B( 14-C , 15-S ) :   1.0920
B( 14-C , 41-C ) :   1.0735 B( 15-S , 16-C ) :   1.1282 B( 17-C , 18-C ) :   1.3437
B( 17-C , 22-C ) :   1.3693 B( 18-C , 19-C ) :   1.3049 B( 18-C , 56-H ) :   1.0004
B( 19-C , 20-C ) :   1.2995 B( 19-C , 38-O ) :   1.0932 B( 20-C , 21-C ) :   1.3929
B( 20-C , 35-O ) :   1.1484 B( 21-C , 22-C ) :   1.3860 B( 21-C , 57-H ) :   0.9977
B( 22-C , 58-H ) :   0.9949 B( 23-C , 24-C ) :   1.3892 B( 23-C , 28-C ) :   1.3434
B( 24-C , 25-C ) :   1.3366 B( 24-C , 59-H ) :   1.0014 B( 25-C , 26-C ) :   1.3149
B( 25-C , 60-H ) :   1.0000 B( 26-C , 27-C ) :   1.3005 B( 26-C , 29-O ) :   1.1055
B( 27-C , 28-C ) :   1.4235 B( 27-C , 32-O ) :   1.1436 B( 28-C , 61-H ) :   0.9928
B( 29-O , 30-C ) :   0.9319 B( 30-C , 31-C ) :   1.0873 B( 30-C , 62-H ) :   0.9532
B( 30-C , 63-H ) :   0.9526 B( 31-C , 64-H ) :   0.9726 B( 31-C , 65-H ) :   0.9656
B( 31-C , 66-H ) :   0.9721 B( 32-O , 33-C ) :   0.9129 B( 33-C , 34-C ) :   1.0824
B( 33-C , 67-H ) :   0.9600 B( 33-C , 68-H ) :   0.9596 B( 34-C , 69-H ) :   0.9712
B( 34-C , 70-H ) :   0.9672 B( 34-C , 71-H ) :   0.9719 B( 35-O , 36-C ) :   0.9096
B( 36-C , 37-C ) :   1.0790 B( 36-C , 72-H ) :   0.9605 B( 36-C , 73-H ) :   0.9616
B( 37-C , 74-H ) :   0.9719 B( 37-C , 75-H ) :   0.9673 B( 37-C , 76-H ) :   0.9710
B( 38-O , 39-C ) :   0.9249 B( 39-C , 40-C ) :   1.1076 B( 39-C , 77-H ) :   0.9502
B( 39-C , 78-H ) :   0.9596 B( 40-C , 79-H ) :   0.9600 B( 40-C , 80-H ) :   0.9611
B( 40-C , 81-H ) :   0.9598 B( 41-C , 42-C ) :   1.3226 B( 41-C , 46-C ) :   1.3263
B( 42-C , 43-C ) :   1.4398 B( 42-C , 82-H ) :   0.9855 B( 43-C , 44-C ) :   1.3457
B( 43-C , 83-H ) :   0.9966 B( 44-C , 45-C ) :   1.3026 B( 44-C , 47-C ) :   1.0758
B( 45-C , 46-C ) :   1.4120 B( 45-C , 84-H ) :   0.9855 B( 46-C , 52-F ) :   1.0801
B( 47-C , 48-S ) :   1.1427 B( 47-C , 51-C ) :   1.5642 B( 48-S , 49-C ) :   1.1659
B( 49-C , 50-C ) :   1.5825 B( 49-C , 85-H ) :   0.9744 B( 50-C , 51-C ) :   1.2596
B( 50-C , 86-H ) :   0.9942 B( 51-C , 87-H ) :   0.9895

-----------------------------------------------------------------------------
         ABSORPTION SPECTRUM VIA TRANSITION ELECTRIC DIPOLE MOMENTS
-----------------------------------------------------------------------------
State   Energy  Wavelength   fosc         T2         TX        TY        TZ
        (cm-1)    (nm)                  (au**2)     (au)      (au)      (au)
-----------------------------------------------------------------------------
   0   25705.1    389.0   1.029406423  13.18387  -0.04128   3.59518  -0.50682
   1   30634.1    326.4   0.053040436   0.57000   0.69572   0.21442  -0.20000
   2   32344.0    309.2   0.663379460   6.75217  -2.36800  -1.05999   0.14540
   3   33832.9    295.6   0.744634547   7.24568  -1.18342  -2.37455   0.45464
   4   35999.7    277.8   0.045562323   0.41666  -0.28771   0.57752   0.01862
   5   38570.9    259.3   0.175615393   1.49892   0.76193   0.88889  -0.35813
   6   39194.4    255.1   0.163794595   1.37579  -1.03280   0.55012   0.08043
   7   39646.3    252.2   0.050497578   0.41932  -0.62189  -0.16661   0.06936

Dispersion correction           -0.051565899
FINAL SINGLE POINT ENERGY     -3125.246293735352

DIPOLE MOMENT
-------------
                                X             Y             Z
Electronic contribution:     90.96290     -15.18182      15.67646
Nuclear contribution   :    -93.44328      15.80331     -16.01107
                        -----------------------------------------
Total Dipole Moment    :     -2.48039       0.62149      -0.33460
                        -----------------------------------------
Magnitude (a.u.)       :      2.57886
Magnitude (Debye)      :      6.55495

Rotational constants in cm-1:     0.001958     0.000985     0.000690
Rotational constants in MHz :    58.691139    29.537542    20.680725

                             ****ORCA TERMINATED NORMALLY****
TOTAL RUN TIME: 0 days 0 hours 6 minutes 30 seconds 11 msec
