                         Program Version 4.2.0 -  RELEASE  -
|  1> # ORCA input file
|  2> # SCF done       -154.841010240663          0.000562663676
|  3> ! wb97x-d3 def2-SVP def2/J RIJCOSX Grid4 TightSCF
|  4> %maxcore 5000
|  5> %tddft
|  6>     Mode sTDA
|  7>     Ethresh 5.0
|  8>     maxcore 5000
|  9> end
| 10>
| 11> %pal
| 12>   nprocs 6
| 13>   end
| 14> * xyz 0 1
| 15>    C        0.59743         1.54710        -0.00664
| 16>    C        1.77581         0.85489         0.06096
| 17>    C        1.82491        -0.54907         0.06577
| 18>    C        0.67464        -1.32025         0.00384
| 19>    C       -0.55663        -0.60382        -0.07639
| 20>    C       -0.59890         0.81395        -0.08660
| 21>    N       -1.69803        -1.29972        -0.09525
| 22>    C       -2.85709        -0.68175        -0.15056
| 23>    C       -2.88663         0.74833        -0.27733
| 24>    N       -1.77881         1.44912        -0.21125
| 25>    F        2.93845         1.52551         0.13167
| 26>    F        3.04068        -1.11942         0.15179
| 27>    C        1.69403        -3.65469         0.06719
| 28>    C        1.28881        -4.98879         0.16461
| 29>    C       -0.07594        -5.13055         0.24908
| 30>    S       -0.87293        -3.58106         0.17656
| 31>    C        0.64817        -2.75711         0.05963
| 32>    C       -4.04025        -1.52943        -0.03128
| 33>    C       -4.02264        -2.78440        -0.63947
| 34>    C       -5.06541        -3.68542        -0.50725
| 35>    C       -6.16864        -3.32477         0.29811
| 36>    C       -6.17722        -2.06183         0.89192
| 37>    C       -5.14369        -1.16583         0.73370
| 38>    C       -4.12101         1.49651        -0.51936
| 39>    C       -4.29829         2.74345         0.06715
| 40>    C       -5.46232         3.45284        -0.15326
| 41>    C       -6.47308         2.96388        -0.97519
| 42>    C       -6.28049         1.71983        -1.61389
| 43>    C       -5.11149         1.01194        -1.36630
| 44>    O       -7.64750         3.62794        -1.19216
| 45>    C       -7.85995         4.88532        -0.58173
| 46>    C       -9.23917         5.36767        -1.00415
| 47>    O       -7.13208         1.09013        -2.46414
| 48>    C       -8.28429         1.72747        -2.99002
| 49>    C       -8.87917         0.78270        -4.02377
| 50>    O       -7.26624        -4.07042         0.56090
| 51>    C       -7.30350        -5.46891         0.31316
| 52>    C       -8.54454        -6.00992         1.00732
| 53>    O       -5.08511        -4.91669        -1.10644
| 54>    C       -4.05191        -5.29265        -1.99435
| 55>    C       -4.18960        -4.64604        -3.36950
| 56>    C       -0.87450        -6.32520         0.37305
| 57>    C       -2.20097        -6.24420         0.81104
| 58>    C       -2.99221        -7.36370         0.91683
| 59>    C       -2.53584        -8.64965         0.59764
| 60>    C       -1.20773        -8.73024         0.16618
| 61>    C       -0.41476        -7.61119         0.06193
| 62>    C       -3.34989        -9.83864         0.69973
| 63>    S       -2.62357       -11.40966         0.46965
| 64>    C       -4.12596       -12.19055         0.73123
| 65>    C       -5.12739       -11.30582         0.97803
| 66>    C       -4.69045        -9.96837         0.96118
| 67>    F        0.84642        -7.78767        -0.38233
| 68>    F       -4.25346        -7.18005         1.36298
| 69>    H        0.57839         2.62358        -0.00742
| 70>    H        2.72653        -3.36658         0.00151
| 71>    H        1.98405        -5.80749         0.19066
| 72>    H       -3.16036        -3.02926        -1.23531
| 73>    H       -7.03417        -1.81200         1.49704
| 74>    H       -5.17657        -0.20925         1.23032
| 75>    H       -3.52882         3.14329         0.70734
| 76>    H       -5.58286         4.40796         0.33180
| 77>    H       -4.99470         0.06881        -1.87541
| 78>    H       -7.09198         5.59982        -0.90836
| 79>    H       -7.81200         4.78859         0.51154
| 80>    H       -9.28724         5.45872        -2.08580
| 81>    H       -9.44444         6.33505        -0.55519
| 82>    H       -9.99609         4.65763        -0.68255
| 83>    H       -8.01146         2.68005        -3.45780
| 84>    H       -9.00958         1.92304        -2.19283
| 85>    H       -8.16029         0.59704        -4.81723
| 86>    H       -9.77721         1.22012        -4.45030
| 87>    H       -9.12965        -0.16550        -3.55645
| 88>    H       -6.40465        -5.94641         0.71375
| 89>    H       -7.35554        -5.66154        -0.76375
| 90>    H       -8.48721        -5.81734         2.07526
| 91>    H       -8.62102        -7.08077         0.84196
| 92>    H       -9.43359        -5.52335         0.61502
| 93>    H       -4.16334        -6.37787        -2.08267
| 94>    H       -3.06660        -5.08617        -1.56021
| 95>    H       -5.15565        -4.89570        -3.80139
| 96>    H       -3.40442        -5.01408        -4.02400
| 97>    H       -4.11401        -3.56387        -3.30059
| 98>    H       -2.61804        -5.28706         1.08500
| 99>    H       -0.78610        -9.68767        -0.09883
|100>    H       -4.17547       -13.26039         0.68598
|101>    H       -6.14552       -11.59595         1.16686
|102>    H       -5.35131        -9.13967         1.13195
|103> *
|104>
|105>                          ****END OF INPUT****

CARTESIAN COORDINATES (ANGSTROEM)
---------------------------------
  C      0.597430    1.547100   -0.006640
  C      1.775810    0.854890    0.060960
  C      1.824910   -0.549070    0.065770
  C      0.674640   -1.320250    0.003840
  C     -0.556630   -0.603820   -0.076390
  C     -0.598900    0.813950   -0.086600
  N     -1.698030   -1.299720   -0.095250
  C     -2.857090   -0.681750   -0.150560
  C     -2.886630    0.748330   -0.277330
  N     -1.778810    1.449120   -0.211250
  F      2.938450    1.525510    0.131670
  F      3.040680   -1.119420    0.151790
  C      1.694030   -3.654690    0.067190
  C      1.288810   -4.988790    0.164610
  C     -0.075940   -5.130550    0.249080
  S     -0.872930   -3.581060    0.176560
  C      0.648170   -2.757110    0.059630
  C     -4.040250   -1.529430   -0.031280
  C     -4.022640   -2.784400   -0.639470
  C     -5.065410   -3.685420   -0.507250
  C     -6.168640   -3.324770    0.298110
  C     -6.177220   -2.061830    0.891920
  C     -5.143690   -1.165830    0.733700
  C     -4.121010    1.496510   -0.519360
  C     -4.298290    2.743450    0.067150
  C     -5.462320    3.452840   -0.153260
  C     -6.473080    2.963880   -0.975190
  C     -6.280490    1.719830   -1.613890
  C     -5.111490    1.011940   -1.366300
  O     -7.647500    3.627940   -1.192160
  C     -7.859950    4.885320   -0.581730
  C     -9.239170    5.367670   -1.004150
  O     -7.132080    1.090130   -2.464140
  C     -8.284290    1.727470   -2.990020
  C     -8.879170    0.782700   -4.023770
  O     -7.266240   -4.070420    0.560900
  C     -7.303500   -5.468910    0.313160
  C     -8.544540   -6.009920    1.007320
  O     -5.085110   -4.916690   -1.106440
  C     -4.051910   -5.292650   -1.994350
  C     -4.189600   -4.646040   -3.369500
  C     -0.874500   -6.325200    0.373050
  C     -2.200970   -6.244200    0.811040
  C     -2.992210   -7.363700    0.916830
  C     -2.535840   -8.649650    0.597640
  C     -1.207730   -8.730240    0.166180
  C     -0.414760   -7.611190    0.061930
  C     -3.349890   -9.838640    0.699730
  S     -2.623570  -11.409660    0.469650
  C     -4.125960  -12.190550    0.731230
  C     -5.127390  -11.305820    0.978030
  C     -4.690450   -9.968370    0.961180
  F      0.846420   -7.787670   -0.382330
  F     -4.253460   -7.180050    1.362980
  H      0.578390    2.623580   -0.007420
  H      2.726530   -3.366580    0.001510
  H      1.984050   -5.807490    0.190660
  H     -3.160360   -3.029260   -1.235310
  H     -7.034170   -1.812000    1.497040
  H     -5.176570   -0.209250    1.230320
  H     -3.528820    3.143290    0.707340
  H     -5.582860    4.407960    0.331800
  H     -4.994700    0.068810   -1.875410
  H     -7.091980    5.599820   -0.908360
  H     -7.812000    4.788590    0.511540
  H     -9.287240    5.458720   -2.085800
  H     -9.444440    6.335050   -0.555190
  H     -9.996090    4.657630   -0.682550
  H     -8.011460    2.680050   -3.457800
  H     -9.009580    1.923040   -2.192830
  H     -8.160290    0.597040   -4.817230
  H     -9.777210    1.220120   -4.450300
  H     -9.129650   -0.165500   -3.556450
  H     -6.404650   -5.946410    0.713750
  H     -7.355540   -5.661540   -0.763750
  H     -8.487210   -5.817340    2.075260
  H     -8.621020   -7.080770    0.841960
  H     -9.433590   -5.523350    0.615020
  H     -4.163340   -6.377870   -2.082670
  H     -3.066600   -5.086170   -1.560210
  H     -5.155650   -4.895700   -3.801390
  H     -3.404420   -5.014080   -4.024000
  H     -4.114010   -3.563870   -3.300590
  H     -2.618040   -5.287060    1.085000
  H     -0.786100   -9.687670   -0.098830
  H     -4.175470  -13.260390    0.685980
  H     -6.145520  -11.595950    1.166860
  H     -5.351310   -9.139670    1.131950

 Total Charge           Charge          ....    0
 Multiplicity           Mult            ....    1
 Number of Electrons    NEL             ....  400
 Basis Dimension        Dim             ....  934

ORBITAL ENERGIES
----------------

  NO   OCC          E(Eh)            E(eV)
   0   2.0000     -88.974343     -2421.1150
   1   2.0000     -88.965812     -2420.8828
   2   2.0000     -24.822550      -675.4559
   3   2.0000     -24.815130      -675.2540
   4   2.0000     -24.813600      -675.2124
   5   2.0000     -24.809307      -675.0956
   6   2.0000     -19.277596      -524.5701
   7   2.0000     -19.269211      -524.3419
   8   2.0000     -19.262804      -524.1675
   9   2.0000     -19.262606      -524.1622
  10   2.0000     -14.455221      -393.3466
  11   2.0000     -14.450829      -393.2270
  12   2.0000     -10.401464      -283.0382
  13   2.0000     -10.399864      -282.9947
  14   2.0000     -10.388801      -282.6937
  15   2.0000     -10.387910      -282.6694
  16   2.0000     -10.361628      -281.9542
  17   2.0000     -10.357577      -281.8440
  18   2.0000     -10.357353      -281.8379
  19   2.0000     -10.356182      -281.8060
  20   2.0000     -10.355216      -281.7798
  21   2.0000     -10.354859      -281.7700
  22   2.0000     -10.354006      -281.7468
  23   2.0000     -10.348777      -281.6045
  24   2.0000     -10.347900      -281.5807
  25   2.0000     -10.346671      -281.5472
  26   2.0000     -10.336596      -281.2731
  27   2.0000     -10.335376      -281.2399
  28   2.0000     -10.334301      -281.2106
  29   2.0000     -10.332458      -281.1605
  30   2.0000     -10.332050      -281.1494
  31   2.0000     -10.329459      -281.0789
  32   2.0000     -10.327946      -281.0377
  33   2.0000     -10.323276      -280.9106
  34   2.0000     -10.318077      -280.7692
  35   2.0000     -10.314737      -280.6783
  36   2.0000     -10.313309      -280.6394
  37   2.0000     -10.312575      -280.6194
  38   2.0000     -10.299815      -280.2722
  39   2.0000     -10.299809      -280.2721
  40   2.0000     -10.299438      -280.2619
  41   2.0000     -10.299370      -280.2601
  42   2.0000     -10.296507      -280.1822
  43   2.0000     -10.295023      -280.1418
  44   2.0000     -10.294826      -280.1365
  45   2.0000     -10.294816      -280.1362
  46   2.0000     -10.292714      -280.0790
  47   2.0000     -10.292655      -280.0774
  48   2.0000     -10.291499      -280.0459
  49   2.0000     -10.290843      -280.0281
  50   2.0000     -10.286601      -279.9126
  51   2.0000     -10.285237      -279.8755
  52   2.0000     -10.278718      -279.6981
  53   2.0000     -10.276988      -279.6510
  54   2.0000      -8.088761      -220.1064
  55   2.0000      -8.076817      -219.7814
  56   2.0000      -6.048218      -164.5804
  57   2.0000      -6.043903      -164.4630
  58   2.0000      -6.041306      -164.3923
  59   2.0000      -6.036712      -164.2673
  60   2.0000      -6.031783      -164.1332
  61   2.0000      -6.029337      -164.0666
  62   2.0000      -1.348221       -36.6870
  63   2.0000      -1.333026       -36.2735
  64   2.0000      -1.330664       -36.2092
  65   2.0000      -1.329760       -36.1846
  66   2.0000      -1.187319       -32.3086
  67   2.0000      -1.181047       -32.1379
  68   2.0000      -1.162995       -31.6467
  69   2.0000      -1.160325       -31.5741
  70   2.0000      -1.118153       -30.4265
  71   2.0000      -1.043843       -28.4044
  72   2.0000      -1.021368       -27.7928
  73   2.0000      -1.013866       -27.5887
  74   2.0000      -1.001959       -27.2647
  75   2.0000      -0.989573       -26.9276
  76   2.0000      -0.977334       -26.5946
  77   2.0000      -0.974265       -26.5111
  78   2.0000      -0.927216       -25.2308
  79   2.0000      -0.919309       -25.0157
  80   2.0000      -0.907654       -24.6985
  81   2.0000      -0.895579       -24.3700
  82   2.0000      -0.890290       -24.2260
  83   2.0000      -0.885560       -24.0973
  84   2.0000      -0.882037       -24.0015
  85   2.0000      -0.875161       -23.8143
  86   2.0000      -0.858951       -23.3732
  87   2.0000      -0.857854       -23.3434
  88   2.0000      -0.854984       -23.2653
  89   2.0000      -0.852460       -23.1966
  90   2.0000      -0.847194       -23.0533
  91   2.0000      -0.839991       -22.8573
  92   2.0000      -0.832926       -22.6651
  93   2.0000      -0.816827       -22.2270
  94   2.0000      -0.791617       -21.5410
  95   2.0000      -0.783324       -21.3153
  96   2.0000      -0.769859       -20.9489
  97   2.0000      -0.766280       -20.8516
  98   2.0000      -0.760454       -20.6930
  99   2.0000      -0.747403       -20.3379
 100   2.0000      -0.741660       -20.1816
 101   2.0000      -0.735647       -20.0180
 102   2.0000      -0.731105       -19.8944
 103   2.0000      -0.715600       -19.4725
 104   2.0000      -0.709830       -19.3155
 105   2.0000      -0.702898       -19.1268
 106   2.0000      -0.698653       -19.0113
 107   2.0000      -0.690990       -18.8028
 108   2.0000      -0.689471       -18.7615
 109   2.0000      -0.679919       -18.5015
 110   2.0000      -0.676541       -18.4096
 111   2.0000      -0.673015       -18.3137
 112   2.0000      -0.661254       -17.9936
 113   2.0000      -0.654751       -17.8167
 114   2.0000      -0.653067       -17.7709
 115   2.0000      -0.644743       -17.5444
 116   2.0000      -0.642600       -17.4860
 117   2.0000      -0.635576       -17.2949
 118   2.0000      -0.632000       -17.1976
 119   2.0000      -0.625432       -17.0189
 120   2.0000      -0.619041       -16.8450
 121   2.0000      -0.617722       -16.8091
 122   2.0000      -0.610169       -16.6035
 123   2.0000      -0.607348       -16.5268
 124   2.0000      -0.604445       -16.4478
 125   2.0000      -0.603266       -16.4157
 126   2.0000      -0.593722       -16.1560
 127   2.0000      -0.593187       -16.1414
 128   2.0000      -0.590643       -16.0722
 129   2.0000      -0.584774       -15.9125
 130   2.0000      -0.583851       -15.8874
 131   2.0000      -0.582233       -15.8434
 132   2.0000      -0.581023       -15.8104
 133   2.0000      -0.576462       -15.6863
 134   2.0000      -0.567881       -15.4528
 135   2.0000      -0.566765       -15.4225
 136   2.0000      -0.562036       -15.2938
 137   2.0000      -0.557627       -15.1738
 138   2.0000      -0.555854       -15.1256
 139   2.0000      -0.552343       -15.0300
 140   2.0000      -0.549736       -14.9591
 141   2.0000      -0.541326       -14.7302
 142   2.0000      -0.539840       -14.6898
 143   2.0000      -0.532032       -14.4773
 144   2.0000      -0.530154       -14.4262
 145   2.0000      -0.526078       -14.3153
 146   2.0000      -0.522463       -14.2169
 147   2.0000      -0.520795       -14.1716
 148   2.0000      -0.515426       -14.0254
 149   2.0000      -0.511254       -13.9119
 150   2.0000      -0.510257       -13.8848
 151   2.0000      -0.508460       -13.8359
 152   2.0000      -0.506845       -13.7919
 153   2.0000      -0.503282       -13.6950
 154   2.0000      -0.501125       -13.6363
 155   2.0000      -0.499315       -13.5871
 156   2.0000      -0.498779       -13.5725
 157   2.0000      -0.497347       -13.5335
 158   2.0000      -0.495410       -13.4808
 159   2.0000      -0.489300       -13.3145
 160   2.0000      -0.489074       -13.3084
 161   2.0000      -0.487057       -13.2535
 162   2.0000      -0.487038       -13.2530
 163   2.0000      -0.482857       -13.1392
 164   2.0000      -0.480686       -13.0801
 165   2.0000      -0.476757       -12.9732
 166   2.0000      -0.475536       -12.9400
 167   2.0000      -0.473688       -12.8897
 168   2.0000      -0.470454       -12.8017
 169   2.0000      -0.468589       -12.7509
 170   2.0000      -0.463991       -12.6258
 171   2.0000      -0.462879       -12.5956
 172   2.0000      -0.460522       -12.5314
 173   2.0000      -0.456232       -12.4147
 174   2.0000      -0.450330       -12.2541
 175   2.0000      -0.448984       -12.2175
 176   2.0000      -0.447453       -12.1758
 177   2.0000      -0.445112       -12.1121
 178   2.0000      -0.437797       -11.9131
 179   2.0000      -0.432157       -11.7596
 180   2.0000      -0.429249       -11.6805
 181   2.0000      -0.423371       -11.5205
 182   2.0000      -0.415322       -11.3015
 183   2.0000      -0.409844       -11.1524
 184   2.0000      -0.405034       -11.0215
 185   2.0000      -0.402925       -10.9641
 186   2.0000      -0.399211       -10.8631
 187   2.0000      -0.389344       -10.5946
 188   2.0000      -0.366924        -9.9845
 189   2.0000      -0.353343        -9.6150
 190   2.0000      -0.351296        -9.5592
 191   2.0000      -0.345116        -9.3911
 192   2.0000      -0.341660        -9.2970
 193   2.0000      -0.337721        -9.1898
 194   2.0000      -0.328004        -8.9254
 195   2.0000      -0.326377        -8.8812
 196   2.0000      -0.317354        -8.6356
 197   2.0000      -0.292755        -7.9663
 198   2.0000      -0.281780        -7.6676
 199   2.0000      -0.273022        -7.4293
 200   0.0000      -0.031679        -0.8620
 201   0.0000       0.001599         0.0435
 202   0.0000       0.016474         0.4483
 203   0.0000       0.043418         1.1815
 204   0.0000       0.061230         1.6662

MULLIKEN ATOMIC CHARGES
-----------------------
   0 C :   -0.116801
   1 C :    0.279473
   2 C :    0.152220
   3 C :    0.073522
   4 C :    0.012724
   5 C :    0.010146
   6 N :   -0.125509
   7 C :    0.055285
   8 C :    0.002476
   9 N :   -0.048317
  10 F :   -0.196060
  11 F :   -0.188725
  12 C :   -0.013955
  13 C :   -0.017270
  14 C :   -0.046629
  15 S :    0.113760
  16 C :   -0.095983
  17 C :   -0.054884
  18 C :   -0.093795
  19 C :    0.185012
  20 C :    0.182971
  21 C :   -0.072039
  22 C :    0.054741
  23 C :   -0.017532
  24 C :    0.011452
  25 C :   -0.113261
  26 C :    0.177685
  27 C :    0.171510
  28 C :   -0.028270
  29 O :   -0.359459
  30 C :    0.100290
  31 C :   -0.031952
  32 O :   -0.345508
  33 C :    0.142546
  34 C :   -0.040657
  35 O :   -0.340783
  36 C :    0.135171
  37 C :   -0.044800
  38 O :   -0.365336
  39 C :    0.124791
  40 C :   -0.060197
  41 C :    0.023104
  42 C :   -0.117439
  43 C :    0.251091
  44 C :    0.066957
  45 C :   -0.126496
  46 C :    0.256417
  47 C :   -0.121450
  48 S :    0.083968
  49 C :   -0.075932
  50 C :    0.010259
  51 C :   -0.019460
  52 F :   -0.204143
  53 F :   -0.203343
  54 H :    0.017570
  55 H :    0.020658
  56 H :    0.015998
  57 H :   -0.004108
  58 H :    0.009622
  59 H :    0.009338
  60 H :    0.001678
  61 H :    0.001637
  62 H :    0.012855
  63 H :    0.036998
  64 H :    0.036898
  65 H :    0.046011
  66 H :    0.038645
  67 H :    0.046552
  68 H :    0.025192
  69 H :    0.032378
  70 H :    0.038650
  71 H :    0.030207
  72 H :    0.042818
  73 H :    0.033462
  74 H :    0.033212
  75 H :    0.040020
  76 H :    0.030882
  77 H :    0.039212
  78 H :    0.043771
  79 H :    0.030810
  80 H :    0.043484
  81 H :    0.043935
  82 H :    0.042904
  83 H :    0.034634
  84 H :    0.028962
  85 H :    0.058329
  86 H :    0.019731
  87 H :    0.025472
Sum of atomic charges:   -0.0000000

LOEWDIN ATOMIC CHARGES
----------------------
   0 C :   -0.047204
   1 C :    0.071451
   2 C :    0.070904
   3 C :   -0.057855
   4 C :   -0.015199
   5 C :   -0.013864
   6 N :   -0.061421
   7 C :    0.027745
   8 C :    0.018666
   9 N :   -0.043150
  10 F :   -0.060060
  11 F :   -0.050235
  12 C :   -0.048830
  13 C :   -0.057717
  14 C :   -0.181918
  15 S :    0.486695
  16 C :   -0.176141
  17 C :   -0.065504
  18 C :   -0.050270
  19 C :    0.022861
  20 C :    0.049252
  21 C :   -0.042166
  22 C :   -0.015269
  23 C :   -0.060685
  24 C :   -0.015706
  25 C :   -0.071148
  26 C :    0.029678
  27 C :    0.039222
  28 C :   -0.022197
  29 O :   -0.110083
  30 C :    0.079298
  31 C :   -0.064490
  32 O :   -0.112828
  33 C :    0.080671
  34 C :   -0.069177
  35 O :   -0.108358
  36 C :    0.080905
  37 C :   -0.070225
  38 O :   -0.108311
  39 C :    0.076281
  40 C :   -0.074209
  41 C :   -0.061241
  42 C :   -0.041413
  43 C :    0.089202
  44 C :   -0.060490
  45 C :   -0.047044
  46 C :    0.090861
  47 C :   -0.172884
  48 S :    0.424595
  49 C :   -0.180416
  50 C :   -0.068605
  51 C :   -0.055990
  52 F :   -0.067126
  53 F :   -0.062487
  54 H :    0.050251
  55 H :    0.031182
  56 H :    0.029760
  57 H :    0.023741
  58 H :    0.036860
  59 H :    0.033484
  60 H :    0.031604
  61 H :    0.031944
  62 H :    0.038138
  63 H :    0.015332
  64 H :    0.015332
  65 H :    0.031493
  66 H :    0.033407
  67 H :    0.031731
  68 H :    0.011679
  69 H :    0.012602
  70 H :    0.028493
  71 H :    0.029365
  72 H :    0.030168
  73 H :    0.011885
  74 H :    0.013561
  75 H :    0.028775
  76 H :    0.029247
  77 H :    0.028339
  78 H :    0.027722
  79 H :    0.007721
  80 H :    0.030838
  81 H :    0.035086
  82 H :    0.027776
  83 H :    0.038384
  84 H :    0.035181
  85 H :    0.027720
  86 H :    0.033524
  87 H :    0.031305

  Mayer bond orders larger than 0.100000
B(  0-C ,  1-C ) :   1.4157 B(  0-C ,  3-C ) :   0.1101 B(  0-C ,  5-C ) :   1.2023
B(  0-C , 54-H ) :   1.0352 B(  1-C ,  2-C ) :   1.1975 B(  1-C , 10-F ) :   1.0767
B(  2-C ,  3-C ) :   1.3861 B(  2-C , 11-F ) :   1.1187 B(  3-C ,  4-C ) :   1.1762
B(  3-C , 16-C ) :   1.1060 B(  4-C ,  5-C ) :   1.2406 B(  4-C ,  6-N ) :   1.4004
B(  5-C ,  9-N ) :   1.3971 B(  6-N ,  7-C ) :   1.6292 B(  7-C ,  8-C ) :   1.1678
B(  7-C , 17-C ) :   0.9965 B(  8-C ,  9-N ) :   1.6962 B(  8-C , 23-C ) :   0.9927
B( 12-C , 13-C ) :   1.2595 B( 12-C , 16-C ) :   1.5101 B( 12-C , 55-H ) :   0.9959
B( 13-C , 14-C ) :   1.5269 B( 13-C , 56-H ) :   0.9987 B( 14-C , 15-S ) :   1.0873
B( 14-C , 41-C ) :   1.0802 B( 15-S , 16-C ) :   1.1306 B( 17-C , 18-C ) :   1.3385
B( 17-C , 22-C ) :   1.3711 B( 18-C , 19-C ) :   1.3112 B( 18-C , 57-H ) :   0.9921
B( 19-C , 20-C ) :   1.2954 B( 19-C , 38-O ) :   1.0908 B( 20-C , 21-C ) :   1.3952
B( 20-C , 35-O ) :   1.1574 B( 21-C , 22-C ) :   1.3858 B( 21-C , 58-H ) :   0.9970
B( 22-C , 59-H ) :   0.9918 B( 23-C , 24-C ) :   1.3886 B( 23-C , 28-C ) :   1.3447
B( 24-C , 25-C ) :   1.3367 B( 24-C , 60-H ) :   1.0015 B( 25-C , 26-C ) :   1.3154
B( 25-C , 61-H ) :   1.0002 B( 26-C , 27-C ) :   1.2996 B( 26-C , 29-O ) :   1.1059
B( 27-C , 28-C ) :   1.4231 B( 27-C , 32-O ) :   1.1469 B( 28-C , 62-H ) :   0.9927
B( 29-O , 30-C ) :   0.9313 B( 30-C , 31-C ) :   1.0872 B( 30-C , 63-H ) :   0.9532
B( 30-C , 64-H ) :   0.9524 B( 31-C , 65-H ) :   0.9725 B( 31-C , 66-H ) :   0.9654
B( 31-C , 67-H ) :   0.9722 B( 32-O , 33-C ) :   0.9122 B( 33-C , 34-C ) :   1.0809
B( 33-C , 68-H ) :   0.9605 B( 33-C , 69-H ) :   0.9602 B( 34-C , 70-H ) :   0.9714
B( 34-C , 71-H ) :   0.9672 B( 34-C , 72-H ) :   0.9718 B( 35-O , 36-C ) :   0.9028
B( 36-C , 37-C ) :   1.0805 B( 36-C , 73-H ) :   0.9574 B( 36-C , 74-H ) :   0.9600
B( 37-C , 75-H ) :   0.9714 B( 37-C , 76-H ) :   0.9676 B( 37-C , 77-H ) :   0.9717
B( 38-O , 39-C ) :   0.9299 B( 39-C , 40-C ) :   1.0984 B( 39-C , 78-H ) :   0.9593
B( 39-C , 79-H ) :   0.9425 B( 40-C , 80-H ) :   0.9668 B( 40-C , 81-H ) :   0.9665
B( 40-C , 82-H ) :   0.9681 B( 41-C , 42-C ) :   1.2899 B( 41-C , 46-C ) :   1.3180
B( 42-C , 43-C ) :   1.4064 B( 42-C , 83-H ) :   0.9879 B( 43-C , 44-C ) :   1.3219
B( 43-C , 53-F ) :   1.0492 B( 44-C , 45-C ) :   1.2883 B( 44-C , 47-C ) :   1.0838
B( 45-C , 46-C ) :   1.4170 B( 45-C , 84-H ) :   0.9838 B( 46-C , 52-F ) :   1.0839
B( 47-C , 48-S ) :   1.1383 B( 47-C , 51-C ) :   1.5612 B( 48-S , 49-C ) :   1.1667
B( 49-C , 50-C ) :   1.5797 B( 49-C , 85-H ) :   0.9744 B( 50-C , 51-C ) :   1.2503
B( 50-C , 86-H ) :   0.9949 B( 51-C , 87-H ) :   0.9946

-----------------------------------------------------------------------------
         ABSORPTION SPECTRUM VIA TRANSITION ELECTRIC DIPOLE MOMENTS
-----------------------------------------------------------------------------
State   Energy  Wavelength   fosc         T2         TX        TY        TZ
        (cm-1)    (nm)                  (au**2)     (au)      (au)      (au)
-----------------------------------------------------------------------------
   0   25747.3    388.4   0.920579590  11.77078  -0.18414   3.41804  -0.23210
   1   30079.6    332.5   0.031676251   0.34669   0.54259   0.12701  -0.19014
   2   31785.4    314.6   0.795779727   8.24214   2.46959   1.46376  -0.02603
   3   33750.2    296.3   0.759886272   7.41220  -0.94252  -2.53722   0.29392
   4   35465.6    282.0   0.045176556   0.41935   0.62225  -0.16568   0.06867
   5   37832.7    264.3   0.149402481   1.30007   0.50071   0.96110  -0.35447
   6   38970.7    256.6   0.027916441   0.23583   0.25487  -0.32707  -0.25277
   7   39066.6    256.0   0.131737731   1.11015  -1.03338   0.20165   0.04024
   8   39979.7    250.1   0.072153948   0.59415  -0.73947   0.11984  -0.18159

Dispersion correction           -0.052780420
FINAL SINGLE POINT ENERGY     -3224.381921946567

DIPOLE MOMENT
-------------
                                X             Y             Z
Electronic contribution:     88.66348     -26.04332      21.27540
Nuclear contribution   :    -90.57263      26.54921     -21.68083
                        -----------------------------------------
Total Dipole Moment    :     -1.90915       0.50589      -0.40543
                        -----------------------------------------
Magnitude (a.u.)       :      2.01622
Magnitude (Debye)      :      5.12482

Rotational constants in cm-1:     0.001950     0.000976     0.000687
Rotational constants in MHz :    58.449674    29.264984    20.608966

                             ****ORCA TERMINATED NORMALLY****
TOTAL RUN TIME: 0 days 0 hours 6 minutes 45 seconds 930 msec
