                         Program Version 4.2.0 -  RELEASE  -
|  1> # ORCA input file
|  2> # SCF done       -163.269303947044          0.000497302139
|  3> ! wb97x-d3 def2-SVP def2/J RIJCOSX Grid4 TightSCF
|  4> %maxcore 5000
|  5> %tddft
|  6>     Mode sTDA
|  7>     Ethresh 5.0
|  8>     maxcore 5000
|  9> end
| 10>
| 11> %pal
| 12>   nprocs 6
| 13>   end
| 14> * xyz 0 1
| 15>    C        0.64551         1.52201        -0.07323
| 16>    C        1.81629         0.82359         0.04615
| 17>    C        1.85239        -0.57898         0.12880
| 18>    C        0.69574        -1.34079         0.07843
| 19>    C       -0.52263        -0.61919        -0.08516
| 20>    C       -0.55662         0.79654        -0.14027
| 21>    N       -1.66359        -1.31389        -0.14225
| 22>    C       -2.81812        -0.69448        -0.23409
| 23>    C       -2.84404         0.73753        -0.33883
| 24>    N       -1.73346         1.43521        -0.27805
| 25>    F        2.98342         1.48667         0.10398
| 26>    F        3.05905        -1.15398         0.27745
| 27>    C        1.66847        -3.66960         0.41481
| 28>    C        1.23640        -4.98324         0.59873
| 29>    C       -0.13568        -5.10397         0.58301
| 30>    S       -0.90119        -3.55764         0.31562
| 31>    C        0.63804        -2.76941         0.24044
| 32>    C       -4.00346        -1.54749        -0.17862
| 33>    C       -4.00163        -2.74199        -0.89755
| 34>    C       -5.05702        -3.63544        -0.83302
| 35>    C       -6.12357        -3.35842         0.05035
| 36>    C       -6.11639        -2.15482         0.75337
| 37>    C       -5.08923        -1.24470         0.63530
| 38>    C       -4.07955         1.49425        -0.54591
| 39>    C       -4.24101         2.72599         0.07675
| 40>    C       -5.39931         3.45248        -0.11485
| 41>    C       -6.42041         2.99743        -0.94353
| 42>    C       -6.25724         1.75580        -1.59520
| 43>    C       -5.09083         1.03259        -1.38076
| 44>    O       -7.56993         3.70079        -1.16798
| 45>    C       -7.75606         4.95174        -0.53575
| 46>    C       -9.10792         5.48860        -0.98043
| 47>    O       -7.11890         1.15974        -2.45904
| 48>    C       -8.44089         1.63308        -2.65663
| 49>    C       -9.14401         0.62076        -3.54858
| 50>    O       -7.20580        -4.14242         0.26928
| 51>    C       -7.15092        -5.54321         0.03799
| 52>    C       -8.29175        -6.17550         0.82122
| 53>    O       -5.15048        -4.76567        -1.60092
| 54>    C       -4.23513        -4.98391        -2.65513
| 55>    C       -2.95065        -5.67291        -2.20451
| 56>    C       -0.92939        -6.30013         0.72576
| 57>    C       -0.43160        -7.58386         0.45834
| 58>    C       -1.20948        -8.72258         0.56682
| 59>    C       -2.55835        -8.68510         0.94590
| 60>    C       -3.05187        -7.40400         1.22760
| 61>    C       -2.27556        -6.26511         1.12086
| 62>    C       -3.37929        -9.87126         1.04081
| 63>    S       -2.67049       -11.44695         1.25780
| 64>    C       -4.21523       -12.17814         1.29044
| 65>    C       -5.22100       -11.27560         1.13048
| 66>    C       -4.74984        -9.96009         0.99157
| 67>    F       -2.85713        -5.09574         1.43012
| 68>    F       -0.63712        -9.89983         0.26614
| 69>    F        0.83722        -7.73999         0.05075
| 70>    F       -4.32275        -7.24638         1.63550
| 71>    H        0.63647         2.59767        -0.11876
| 72>    H        2.70696        -3.39658         0.41150
| 73>    H        1.91500        -5.79968         0.76242
| 74>    H       -3.15209        -2.93840        -1.52976
| 75>    H       -6.95322        -1.96071         1.40534
| 76>    H       -5.10634        -0.32998         1.20647
| 77>    H       -3.46083         3.10346         0.71760
| 78>    H       -5.50205         4.39972         0.38932
| 79>    H       -4.99171         0.09960        -1.91153
| 80>    H       -6.95795         5.64714        -0.82930
| 81>    H       -7.73716         4.83069         0.55612
| 82>    H       -9.12413         5.60839        -2.06026
| 83>    H       -9.29373         6.45100        -0.51259
| 84>    H       -9.89557         4.79581        -0.69704
| 85>    H       -8.42683         2.61763        -3.13678
| 86>    H       -8.96048         1.71805        -1.69584
| 87>    H       -8.62106         0.53625        -4.49734
| 88>    H      -10.16690         0.93749        -3.73137
| 89>    H       -9.15058        -0.35464        -3.06963
| 90>    H       -6.19072        -5.93982         0.38059
| 91>    H       -7.26021        -5.75469        -1.03157
| 92>    H       -8.16462        -5.98636         1.88360
| 93>    H       -8.30543        -7.24817         0.65005
| 94>    H       -9.24052        -5.75152         0.50368
| 95>    H       -4.01244        -4.04263        -3.17124
| 96>    H       -4.77476        -5.63749        -3.34831
| 97>    H       -2.41275        -5.05960        -1.48706
| 98>    H       -2.31151        -5.85084        -3.06495
| 99>    H       -3.18558        -6.62749        -1.73887
|100>    H       -4.29204       -13.23924         1.42227
|101>    H       -6.26307       -11.53887         1.11311
|102>    H       -5.39958        -9.11822         0.84397
|103> *
|104>
|105>                          ****END OF INPUT****

CARTESIAN COORDINATES (ANGSTROEM)
---------------------------------
  C      0.645510    1.522010   -0.073230
  C      1.816290    0.823590    0.046150
  C      1.852390   -0.578980    0.128800
  C      0.695740   -1.340790    0.078430
  C     -0.522630   -0.619190   -0.085160
  C     -0.556620    0.796540   -0.140270
  N     -1.663590   -1.313890   -0.142250
  C     -2.818120   -0.694480   -0.234090
  C     -2.844040    0.737530   -0.338830
  N     -1.733460    1.435210   -0.278050
  F      2.983420    1.486670    0.103980
  F      3.059050   -1.153980    0.277450
  C      1.668470   -3.669600    0.414810
  C      1.236400   -4.983240    0.598730
  C     -0.135680   -5.103970    0.583010
  S     -0.901190   -3.557640    0.315620
  C      0.638040   -2.769410    0.240440
  C     -4.003460   -1.547490   -0.178620
  C     -4.001630   -2.741990   -0.897550
  C     -5.057020   -3.635440   -0.833020
  C     -6.123570   -3.358420    0.050350
  C     -6.116390   -2.154820    0.753370
  C     -5.089230   -1.244700    0.635300
  C     -4.079550    1.494250   -0.545910
  C     -4.241010    2.725990    0.076750
  C     -5.399310    3.452480   -0.114850
  C     -6.420410    2.997430   -0.943530
  C     -6.257240    1.755800   -1.595200
  C     -5.090830    1.032590   -1.380760
  O     -7.569930    3.700790   -1.167980
  C     -7.756060    4.951740   -0.535750
  C     -9.107920    5.488600   -0.980430
  O     -7.118900    1.159740   -2.459040
  C     -8.440890    1.633080   -2.656630
  C     -9.144010    0.620760   -3.548580
  O     -7.205800   -4.142420    0.269280
  C     -7.150920   -5.543210    0.037990
  C     -8.291750   -6.175500    0.821220
  O     -5.150480   -4.765670   -1.600920
  C     -4.235130   -4.983910   -2.655130
  C     -2.950650   -5.672910   -2.204510
  C     -0.929390   -6.300130    0.725760
  C     -0.431600   -7.583860    0.458340
  C     -1.209480   -8.722580    0.566820
  C     -2.558350   -8.685100    0.945900
  C     -3.051870   -7.404000    1.227600
  C     -2.275560   -6.265110    1.120860
  C     -3.379290   -9.871260    1.040810
  S     -2.670490  -11.446950    1.257800
  C     -4.215230  -12.178140    1.290440
  C     -5.221000  -11.275600    1.130480
  C     -4.749840   -9.960090    0.991570
  F     -2.857130   -5.095740    1.430120
  F     -0.637120   -9.899830    0.266140
  F      0.837220   -7.739990    0.050750
  F     -4.322750   -7.246380    1.635500
  H      0.636470    2.597670   -0.118760
  H      2.706960   -3.396580    0.411500
  H      1.915000   -5.799680    0.762420
  H     -3.152090   -2.938400   -1.529760
  H     -6.953220   -1.960710    1.405340
  H     -5.106340   -0.329980    1.206470
  H     -3.460830    3.103460    0.717600
  H     -5.502050    4.399720    0.389320
  H     -4.991710    0.099600   -1.911530
  H     -6.957950    5.647140   -0.829300
  H     -7.737160    4.830690    0.556120
  H     -9.124130    5.608390   -2.060260
  H     -9.293730    6.451000   -0.512590
  H     -9.895570    4.795810   -0.697040
  H     -8.426830    2.617630   -3.136780
  H     -8.960480    1.718050   -1.695840
  H     -8.621060    0.536250   -4.497340
  H    -10.166900    0.937490   -3.731370
  H     -9.150580   -0.354640   -3.069630
  H     -6.190720   -5.939820    0.380590
  H     -7.260210   -5.754690   -1.031570
  H     -8.164620   -5.986360    1.883600
  H     -8.305430   -7.248170    0.650050
  H     -9.240520   -5.751520    0.503680
  H     -4.012440   -4.042630   -3.171240
  H     -4.774760   -5.637490   -3.348310
  H     -2.412750   -5.059600   -1.487060
  H     -2.311510   -5.850840   -3.064950
  H     -3.185580   -6.627490   -1.738870
  H     -4.292040  -13.239240    1.422270
  H     -6.263070  -11.538870    1.113110
  H     -5.399580   -9.118220    0.843970

 Total Charge           Charge          ....    0
 Multiplicity           Mult            ....    1
 Number of Electrons    NEL             ....  416
 Basis Dimension        Dim             ....  952

ORBITAL ENERGIES
----------------

  NO   OCC          E(Eh)            E(eV)
   0   2.0000     -88.976021     -2421.1606
   1   2.0000     -88.967231     -2420.9214
   2   2.0000     -24.828685      -675.6229
   3   2.0000     -24.827102      -675.5798
   4   2.0000     -24.824193      -675.5006
   5   2.0000     -24.824143      -675.4993
   6   2.0000     -24.823733      -675.4881
   7   2.0000     -24.816257      -675.2847
   8   2.0000     -19.277325      -524.5627
   9   2.0000     -19.270145      -524.3673
  10   2.0000     -19.262195      -524.1510
  11   2.0000     -19.260947      -524.1170
  12   2.0000     -14.455842      -393.3635
  13   2.0000     -14.451402      -393.2427
  14   2.0000     -10.404814      -283.1294
  15   2.0000     -10.404704      -283.1264
  16   2.0000     -10.404147      -283.1112
  17   2.0000     -10.403119      -283.0833
  18   2.0000     -10.403070      -283.0819
  19   2.0000     -10.401116      -283.0288
  20   2.0000     -10.361337      -281.9463
  21   2.0000     -10.358249      -281.8623
  22   2.0000     -10.357163      -281.8327
  23   2.0000     -10.355322      -281.7826
  24   2.0000     -10.354730      -281.7665
  25   2.0000     -10.354454      -281.7590
  26   2.0000     -10.352867      -281.7158
  27   2.0000     -10.349739      -281.6307
  28   2.0000     -10.349163      -281.6151
  29   2.0000     -10.348750      -281.6038
  30   2.0000     -10.347760      -281.5769
  31   2.0000     -10.344415      -281.4858
  32   2.0000     -10.340309      -281.3741
  33   2.0000     -10.336120      -281.2601
  34   2.0000     -10.336022      -281.2574
  35   2.0000     -10.332963      -281.1742
  36   2.0000     -10.330432      -281.1054
  37   2.0000     -10.323764      -280.9239
  38   2.0000     -10.323491      -280.9165
  39   2.0000     -10.314638      -280.6756
  40   2.0000     -10.304631      -280.4033
  41   2.0000     -10.300597      -280.2935
  42   2.0000     -10.299681      -280.2686
  43   2.0000     -10.299274      -280.2575
  44   2.0000     -10.296115      -280.1715
  45   2.0000     -10.295469      -280.1540
  46   2.0000     -10.295435      -280.1530
  47   2.0000     -10.294964      -280.1402
  48   2.0000     -10.294633      -280.1312
  49   2.0000     -10.292438      -280.0715
  50   2.0000     -10.292122      -280.0629
  51   2.0000     -10.291151      -280.0365
  52   2.0000     -10.286296      -279.9044
  53   2.0000     -10.286240      -279.9028
  54   2.0000     -10.277836      -279.6741
  55   2.0000     -10.277355      -279.6611
  56   2.0000      -8.090423      -220.1516
  57   2.0000      -8.077821      -219.8087
  58   2.0000      -6.049940      -164.6272
  59   2.0000      -6.045373      -164.5030
  60   2.0000      -6.042953      -164.4371
  61   2.0000      -6.037841      -164.2980
  62   2.0000      -6.032625      -164.1561
  63   2.0000      -6.030269      -164.0920
  64   2.0000      -1.356718       -36.9182
  65   2.0000      -1.355874       -36.8952
  66   2.0000      -1.349852       -36.7313
  67   2.0000      -1.338796       -36.4305
  68   2.0000      -1.338135       -36.4125
  69   2.0000      -1.332142       -36.2494
  70   2.0000      -1.187027       -32.3007
  71   2.0000      -1.181274       -32.1441
  72   2.0000      -1.162533       -31.6341
  73   2.0000      -1.159473       -31.5509
  74   2.0000      -1.119170       -30.4542
  75   2.0000      -1.044973       -28.4352
  76   2.0000      -1.029176       -28.0053
  77   2.0000      -1.016032       -27.6476
  78   2.0000      -1.007811       -27.4239
  79   2.0000      -0.994928       -27.0734
  80   2.0000      -0.977682       -26.6041
  81   2.0000      -0.973951       -26.5026
  82   2.0000      -0.935015       -25.4431
  83   2.0000      -0.919467       -25.0200
  84   2.0000      -0.910759       -24.7830
  85   2.0000      -0.896198       -24.3868
  86   2.0000      -0.890015       -24.2185
  87   2.0000      -0.886978       -24.1359
  88   2.0000      -0.882536       -24.0150
  89   2.0000      -0.881705       -23.9924
  90   2.0000      -0.866198       -23.5704
  91   2.0000      -0.861622       -23.4459
  92   2.0000      -0.856433       -23.3047
  93   2.0000      -0.854722       -23.2582
  94   2.0000      -0.848182       -23.0802
  95   2.0000      -0.841235       -22.8912
  96   2.0000      -0.833089       -22.6695
  97   2.0000      -0.822539       -22.3824
  98   2.0000      -0.793343       -21.5880
  99   2.0000      -0.785016       -21.3614
 100   2.0000      -0.776989       -21.1430
 101   2.0000      -0.766292       -20.8519
 102   2.0000      -0.762147       -20.7391
 103   2.0000      -0.759872       -20.6772
 104   2.0000      -0.747804       -20.3488
 105   2.0000      -0.737162       -20.0592
 106   2.0000      -0.731870       -19.9152
 107   2.0000      -0.716384       -19.4938
 108   2.0000      -0.711108       -19.3502
 109   2.0000      -0.709494       -19.3063
 110   2.0000      -0.704347       -19.1662
 111   2.0000      -0.703126       -19.1330
 112   2.0000      -0.697820       -18.9887
 113   2.0000      -0.689475       -18.7616
 114   2.0000      -0.685836       -18.6626
 115   2.0000      -0.674758       -18.3611
 116   2.0000      -0.670783       -18.2529
 117   2.0000      -0.666318       -18.1314
 118   2.0000      -0.660175       -17.9643
 119   2.0000      -0.654181       -17.8012
 120   2.0000      -0.652881       -17.7658
 121   2.0000      -0.644874       -17.5479
 122   2.0000      -0.643497       -17.5104
 123   2.0000      -0.637735       -17.3537
 124   2.0000      -0.631980       -17.1971
 125   2.0000      -0.628224       -17.0948
 126   2.0000      -0.625192       -17.0123
 127   2.0000      -0.621255       -16.9052
 128   2.0000      -0.616427       -16.7738
 129   2.0000      -0.611459       -16.6387
 130   2.0000      -0.609708       -16.5910
 131   2.0000      -0.605107       -16.4658
 132   2.0000      -0.604260       -16.4427
 133   2.0000      -0.602942       -16.4069
 134   2.0000      -0.600830       -16.3494
 135   2.0000      -0.593947       -16.1621
 136   2.0000      -0.591548       -16.0968
 137   2.0000      -0.583788       -15.8857
 138   2.0000      -0.582920       -15.8621
 139   2.0000      -0.581209       -15.8155
 140   2.0000      -0.578685       -15.7468
 141   2.0000      -0.571699       -15.5567
 142   2.0000      -0.569239       -15.4898
 143   2.0000      -0.567068       -15.4307
 144   2.0000      -0.558371       -15.1940
 145   2.0000      -0.557534       -15.1713
 146   2.0000      -0.553091       -15.0504
 147   2.0000      -0.552175       -15.0254
 148   2.0000      -0.549891       -14.9633
 149   2.0000      -0.544959       -14.8291
 150   2.0000      -0.539850       -14.6901
 151   2.0000      -0.531771       -14.4702
 152   2.0000      -0.530648       -14.4397
 153   2.0000      -0.524968       -14.2851
 154   2.0000      -0.521674       -14.1955
 155   2.0000      -0.521077       -14.1792
 156   2.0000      -0.517807       -14.0903
 157   2.0000      -0.514358       -13.9964
 158   2.0000      -0.511460       -13.9175
 159   2.0000      -0.510909       -13.9026
 160   2.0000      -0.506426       -13.7806
 161   2.0000      -0.505539       -13.7564
 162   2.0000      -0.504814       -13.7367
 163   2.0000      -0.501951       -13.6588
 164   2.0000      -0.500980       -13.6324
 165   2.0000      -0.498441       -13.5633
 166   2.0000      -0.493200       -13.4207
 167   2.0000      -0.492068       -13.3898
 168   2.0000      -0.490937       -13.3591
 169   2.0000      -0.488444       -13.2912
 170   2.0000      -0.487036       -13.2529
 171   2.0000      -0.485877       -13.2214
 172   2.0000      -0.482702       -13.1350
 173   2.0000      -0.480643       -13.0790
 174   2.0000      -0.477431       -12.9916
 175   2.0000      -0.474348       -12.9077
 176   2.0000      -0.473085       -12.8733
 177   2.0000      -0.467700       -12.7268
 178   2.0000      -0.465805       -12.6752
 179   2.0000      -0.462347       -12.5811
 180   2.0000      -0.460180       -12.5221
 181   2.0000      -0.455294       -12.3892
 182   2.0000      -0.450670       -12.2633
 183   2.0000      -0.448871       -12.2144
 184   2.0000      -0.448023       -12.1913
 185   2.0000      -0.444876       -12.1057
 186   2.0000      -0.442251       -12.0343
 187   2.0000      -0.433494       -11.7960
 188   2.0000      -0.428879       -11.6704
 189   2.0000      -0.421711       -11.4754
 190   2.0000      -0.415740       -11.3129
 191   2.0000      -0.412935       -11.2365
 192   2.0000      -0.404997       -11.0205
 193   2.0000      -0.402531       -10.9534
 194   2.0000      -0.396902       -10.8002
 195   2.0000      -0.388829       -10.5806
 196   2.0000      -0.368077       -10.0159
 197   2.0000      -0.353579        -9.6214
 198   2.0000      -0.350362        -9.5338
 199   2.0000      -0.343236        -9.3399
 200   2.0000      -0.340385        -9.2624
 201   2.0000      -0.338494        -9.2109
 202   2.0000      -0.327984        -8.9249
 203   2.0000      -0.327419        -8.9095
 204   2.0000      -0.321551        -8.7499
 205   2.0000      -0.292555        -7.9608
 206   2.0000      -0.283520        -7.7150
 207   2.0000      -0.278457        -7.5772
 208   0.0000      -0.033560        -0.9132
 209   0.0000      -0.001006        -0.0274
 210   0.0000       0.018041         0.4909
 211   0.0000       0.041895         1.1400
 212   0.0000       0.060355         1.6423

MULLIKEN ATOMIC CHARGES
-----------------------
   0 C :   -0.116615
   1 C :    0.279588
   2 C :    0.152078
   3 C :    0.073517
   4 C :    0.013622
   5 C :    0.011012
   6 N :   -0.129404
   7 C :    0.049264
   8 C :    0.005987
   9 N :   -0.047623
  10 F :   -0.195463
  11 F :   -0.187916
  12 C :   -0.020900
  13 C :   -0.004598
  14 C :   -0.064147
  15 S :    0.163652
  16 C :   -0.100432
  17 C :   -0.056281
  18 C :   -0.085500
  19 C :    0.185825
  20 C :    0.185728
  21 C :   -0.071134
  22 C :    0.056338
  23 C :   -0.014457
  24 C :    0.012453
  25 C :   -0.114128
  26 C :    0.178612
  27 C :    0.171729
  28 C :   -0.028046
  29 O :   -0.359221
  30 C :    0.100318
  31 C :   -0.031964
  32 O :   -0.345535
  33 C :    0.142388
  34 C :   -0.040466
  35 O :   -0.343003
  36 C :    0.139764
  37 C :   -0.045244
  38 O :   -0.363301
  39 C :    0.131102
  40 C :   -0.047071
  41 C :   -0.052936
  42 C :    0.199481
  43 C :    0.180407
  44 C :   -0.034961
  45 C :    0.198799
  46 C :    0.171477
  47 C :   -0.138474
  48 S :    0.137759
  49 C :   -0.084539
  50 C :    0.005464
  51 C :   -0.000820
  52 F :   -0.173532
  53 F :   -0.185335
  54 F :   -0.184378
  55 F :   -0.185438
  56 H :    0.018138
  57 H :    0.020912
  58 H :    0.016892
  59 H :   -0.007846
  60 H :    0.009018
  61 H :    0.009332
  62 H :    0.001261
  63 H :    0.001471
  64 H :    0.012710
  65 H :    0.037228
  66 H :    0.036789
  67 H :    0.047349
  68 H :    0.038586
  69 H :    0.045283
  70 H :    0.030226
  71 H :    0.026807
  72 H :    0.039105
  73 H :    0.029864
  74 H :    0.043313
  75 H :    0.024973
  76 H :    0.034396
  77 H :    0.040926
  78 H :    0.029128
  79 H :    0.039767
  80 H :    0.031839
  81 H :    0.040360
  82 H :    0.026384
  83 H :    0.043467
  84 H :    0.036057
  85 H :    0.059040
  86 H :    0.020984
  87 H :    0.022734
Sum of atomic charges:    0.0000000

LOEWDIN ATOMIC CHARGES
----------------------
   0 C :   -0.046005
   1 C :    0.071388
   2 C :    0.071486
   3 C :   -0.058370
   4 C :   -0.015277
   5 C :   -0.013832
   6 N :   -0.060432
   7 C :    0.029681
   8 C :    0.019552
   9 N :   -0.043460
  10 F :   -0.059482
  11 F :   -0.049389
  12 C :   -0.053426
  13 C :   -0.051786
  14 C :   -0.193070
  15 S :    0.505703
  16 C :   -0.176203
  17 C :   -0.061984
  18 C :   -0.049002
  19 C :    0.027269
  20 C :    0.047615
  21 C :   -0.041048
  22 C :   -0.015929
  23 C :   -0.060541
  24 C :   -0.015502
  25 C :   -0.071346
  26 C :    0.029903
  27 C :    0.039186
  28 C :   -0.021617
  29 O :   -0.109997
  30 C :    0.079419
  31 C :   -0.064491
  32 O :   -0.113044
  33 C :    0.080830
  34 C :   -0.069160
  35 O :   -0.110659
  36 C :    0.080997
  37 C :   -0.069969
  38 O :   -0.110386
  39 C :    0.079374
  40 C :   -0.076479
  41 C :   -0.080151
  42 C :    0.066817
  43 C :    0.056207
  44 C :   -0.083470
  45 C :    0.063857
  46 C :    0.057703
  47 C :   -0.185706
  48 S :    0.447529
  49 C :   -0.182267
  50 C :   -0.071305
  51 C :   -0.050049
  52 F :   -0.044211
  53 F :   -0.053689
  54 F :   -0.046635
  55 F :   -0.044768
  56 H :    0.050564
  57 H :    0.031300
  58 H :    0.029712
  59 H :    0.027396
  60 H :    0.036753
  61 H :    0.033048
  62 H :    0.031421
  63 H :    0.031882
  64 H :    0.038283
  65 H :    0.015604
  66 H :    0.015118
  67 H :    0.031790
  68 H :    0.033398
  69 H :    0.031448
  70 H :    0.011841
  71 H :    0.012268
  72 H :    0.028797
  73 H :    0.029250
  74 H :    0.030263
  75 H :    0.009838
  76 H :    0.013487
  77 H :    0.029212
  78 H :    0.028184
  79 H :    0.028777
  80 H :    0.014731
  81 H :    0.025804
  82 H :    0.012883
  83 H :    0.036266
  84 H :    0.027193
  85 H :    0.028123
  86 H :    0.033869
  87 H :    0.031119

  Mayer bond orders larger than 0.100000
B(  0-C ,  1-C ) :   1.4160 B(  0-C ,  3-C ) :   0.1099 B(  0-C ,  5-C ) :   1.2013
B(  0-C , 56-H ) :   1.0357 B(  1-C ,  2-C ) :   1.1965 B(  1-C , 10-F ) :   1.0767
B(  2-C ,  3-C ) :   1.3855 B(  2-C , 11-F ) :   1.1190 B(  3-C ,  4-C ) :   1.1778
B(  3-C , 16-C ) :   1.1062 B(  4-C ,  5-C ) :   1.2440 B(  4-C ,  6-N ) :   1.3937
B(  5-C ,  9-N ) :   1.3987 B(  6-N ,  7-C ) :   1.6307 B(  7-C ,  8-C ) :   1.1711
B(  7-C , 17-C ) :   0.9932 B(  8-C ,  9-N ) :   1.6934 B(  8-C , 23-C ) :   0.9941
B( 12-C , 13-C ) :   1.2762 B( 12-C , 16-C ) :   1.4979 B( 12-C , 57-H ) :   0.9964
B( 13-C , 14-C ) :   1.5128 B( 13-C , 58-H ) :   0.9982 B( 14-C , 15-S ) :   1.0890
B( 14-C , 41-C ) :   1.0846 B( 15-S , 16-C ) :   1.1397 B( 17-C , 18-C ) :   1.3391
B( 17-C , 22-C ) :   1.3731 B( 18-C , 19-C ) :   1.3079 B( 18-C , 59-H ) :   0.9966
B( 19-C , 20-C ) :   1.3000 B( 19-C , 38-O ) :   1.0925 B( 20-C , 21-C ) :   1.4027
B( 20-C , 35-O ) :   1.1516 B( 21-C , 22-C ) :   1.3803 B( 21-C , 60-H ) :   0.9978
B( 22-C , 61-H ) :   0.9923 B( 23-C , 24-C ) :   1.3874 B( 23-C , 28-C ) :   1.3447
B( 24-C , 25-C ) :   1.3386 B( 24-C , 62-H ) :   1.0010 B( 25-C , 26-C ) :   1.3158
B( 25-C , 63-H ) :   1.0001 B( 26-C , 27-C ) :   1.2996 B( 26-C , 29-O ) :   1.1067
B( 27-C , 28-C ) :   1.4206 B( 27-C , 32-O ) :   1.1473 B( 28-C , 64-H ) :   0.9919
B( 29-O , 30-C ) :   0.9311 B( 30-C , 31-C ) :   1.0872 B( 30-C , 65-H ) :   0.9526
B( 30-C , 66-H ) :   0.9530 B( 31-C , 67-H ) :   0.9722 B( 31-C , 68-H ) :   0.9654
B( 31-C , 69-H ) :   0.9725 B( 32-O , 33-C ) :   0.9123 B( 33-C , 34-C ) :   1.0810
B( 33-C , 70-H ) :   0.9604 B( 33-C , 71-H ) :   0.9606 B( 34-C , 72-H ) :   0.9719
B( 34-C , 73-H ) :   0.9671 B( 34-C , 74-H ) :   0.9712 B( 35-O , 36-C ) :   0.9052
B( 36-C , 37-C ) :   1.0833 B( 36-C , 75-H ) :   0.9554 B( 36-C , 76-H ) :   0.9586
B( 37-C , 77-H ) :   0.9712 B( 37-C , 78-H ) :   0.9675 B( 37-C , 79-H ) :   0.9716
B( 38-O , 39-C ) :   0.9341 B( 39-C , 40-C ) :   1.1061 B( 39-C , 80-H ) :   0.9503
B( 39-C , 81-H ) :   0.9601 B( 40-C , 82-H ) :   0.9594 B( 40-C , 83-H ) :   0.9612
B( 40-C , 84-H ) :   0.9609 B( 41-C , 42-C ) :   1.3044 B( 41-C , 44-C ) :   0.1102
B( 41-C , 46-C ) :   1.2879 B( 42-C , 43-C ) :   1.3277 B( 42-C , 54-F ) :   1.1219
B( 43-C , 44-C ) :   1.3003 B( 43-C , 53-F ) :   1.1217 B( 44-C , 45-C ) :   1.3154
B( 44-C , 47-C ) :   1.0686 B( 45-C , 46-C ) :   1.3262 B( 45-C , 55-F ) :   1.0918
B( 46-C , 52-F ) :   1.1312 B( 47-C , 48-S ) :   1.1469 B( 47-C , 51-C ) :   1.5471
B( 48-S , 49-C ) :   1.1790 B( 49-C , 50-C ) :   1.5612 B( 49-C , 85-H ) :   0.9740
B( 50-C , 51-C ) :   1.2725 B( 50-C , 86-H ) :   0.9963 B( 51-C , 87-H ) :   0.9966

-----------------------------------------------------------------------------
         ABSORPTION SPECTRUM VIA TRANSITION ELECTRIC DIPOLE MOMENTS
-----------------------------------------------------------------------------
State   Energy  Wavelength   fosc         T2         TX        TY        TZ
        (cm-1)    (nm)                  (au**2)     (au)      (au)      (au)
-----------------------------------------------------------------------------
   0   26331.8    379.8   0.922890896  11.53840   0.17458  -3.36464   0.43256
   1   29647.2    337.3   0.033047285   0.36697   0.56458   0.12412  -0.18113
   2   32002.6    312.5   0.698207026   7.18248  -2.38774  -1.21692   0.01645
   3   34489.9    289.9   0.744982419   7.11099   0.75211   2.54121  -0.29594
   4   36102.3    277.0   0.380329742   3.46817   1.04171   1.53100  -0.19763
   5   38374.3    260.6   0.089357949   0.76660   0.47892   0.64767  -0.34316
   6   39132.7    255.5   0.048843781   0.41091   0.59252  -0.08512   0.22931
   7   39297.9    254.5   0.103162529   0.86423   0.86585  -0.33677  -0.03351

Dispersion correction           -0.054352873
FINAL SINGLE POINT ENERGY     -3422.630920262793

DIPOLE MOMENT
-------------
                                X             Y             Z
Electronic contribution:     93.08789     -45.36976      25.26747
Nuclear contribution   :    -94.97277      45.95940     -25.58518
                        -----------------------------------------
Total Dipole Moment    :     -1.88488       0.58963      -0.31771
                        -----------------------------------------
Magnitude (a.u.)       :      2.00034
Magnitude (Debye)      :      5.08447

Rotational constants in cm-1:     0.001960     0.000915     0.000655
Rotational constants in MHz :    58.763956    27.427833    19.630990

                             ****ORCA TERMINATED NORMALLY****
TOTAL RUN TIME: 0 days 0 hours 7 minutes 1 seconds 770 msec
