                         Program Version 4.2.0 -  RELEASE  -
|  1> # ORCA input file
|  2> # SCF done       -177.338422515740          0.000584178699
|  3> ! wb97x-d3 def2-SVP def2/J RIJCOSX Grid4 TightSCF
|  4> %maxcore 5000
|  5> %tddft
|  6>     Mode sTDDFT
|  7>     Ethresh 5.0
|  8>     maxcore 5000
|  9> end
| 10>
| 11> %pal
| 12>   nprocs 6
| 13>   end
| 14> * xyz 0 1
| 15>    C        1.23232         2.77740         1.01811
| 16>    C        2.28355         2.33098         1.77363
| 17>    C        3.22536         1.25225         1.60975
| 18>    C        3.86353         1.03008         2.90933
| 19>    C        3.49406         2.07283         3.77712
| 20>    C        2.54542         2.97609         3.08464
| 21>    O        2.05514         3.99751         3.50582
| 22>    C        3.64927         0.70336         0.42496
| 23>    C        4.60381        -0.32872         0.32895
| 24>    N        5.34322        -1.19616         0.19255
| 25>    C        3.23566         1.16431        -0.84029
| 26>    N        2.96439         1.52858        -1.89480
| 27>    C        4.73077         0.04058         3.34185
| 28>    C        5.21088         0.12005         4.64120
| 29>    C        4.84817         1.16359         5.49309
| 30>    C        3.98056         2.15695         5.06625
| 31>    F        6.03960        -0.83143         5.08412
| 32>    F        5.34126         1.20432         6.73627
| 33>    C        0.54130         2.14159        -0.02647
| 34>    S       -0.49443         3.09754        -1.05721
| 35>    C       -0.92921         1.71238        -1.98169
| 36>    C       -0.34289         0.54675        -1.46513
| 37>    C        0.48748         0.79725        -0.37748
| 38>    C       -1.78584         1.75998        -3.09965
| 39>    C       -2.30663         2.90803        -3.69136
| 40>    C       -3.21862         2.62259        -4.73244
| 41>    C       -3.34846         1.24792        -4.94317
| 42>    S       -2.34119         0.32018        -3.87341
| 43>    O       -1.91804         4.15126        -3.26395
| 44>    O       -3.89447         3.45614        -5.54832
| 45>    C       -0.70480         4.62569        -3.85850
| 46>    C       -0.40330         5.99102        -3.27017
| 47>    C       -3.94188         4.85423        -5.29885
| 48>    C       -4.73325         5.22596        -4.05163
| 49>    C       -4.08248         0.62217        -5.99472
| 50>    S       -3.35232        -0.66163        -6.89640
| 51>    C       -4.67729        -0.68954        -8.04744
| 52>    C       -5.64642         0.22589        -7.68127
| 53>    C       -5.33848         0.94614        -6.52146
| 54>    C       -4.57151        -1.62522        -9.09224
| 55>    C       -5.32677        -1.81580       -10.22067
| 56>    C       -5.04439        -2.84410       -11.20891
| 57>    C       -5.88844        -2.58478       -12.37478
| 58>    C       -6.73097        -1.50054       -12.08541
| 59>    C       -6.45299        -0.99790       -10.72042
| 60>    O       -7.05197        -0.09872       -10.17177
| 61>    C       -4.19676        -3.91283       -11.08068
| 62>    C       -3.98416        -4.87573       -12.09124
| 63>    N       -3.76562        -5.69026       -12.86954
| 64>    C       -3.44333        -4.24667        -9.93412
| 65>    N       -2.81297        -4.60912        -9.04523
| 66>    C       -5.96551        -3.20645       -13.61191
| 67>    C       -6.88990        -2.72422       -14.52635
| 68>    C       -7.72828        -1.64998       -14.22597
| 69>    C       -7.65605        -1.02335       -12.99276
| 70>    F       -6.97538        -3.30615       -15.72782
| 71>    F       -8.60762        -1.22010       -15.13895
| 72>    O       -0.63181        -0.61957        -2.06158
| 73>    C        0.11297        -1.77234        -1.69313
| 74>    C       -0.29212        -2.89581        -2.63088
| 75>    O       -6.23850         1.79922        -5.99373
| 76>    C       -6.41389         1.79838        -4.58228
| 77>    C       -7.82915         2.27563        -4.29609
| 78>    H        0.84009         3.74237         1.32457
| 79>    H        5.03899        -0.78498         2.72111
| 80>    H        3.70066         2.96511         5.72293
| 81>    H        1.00007         0.03194         0.17625
| 82>    H        0.11387         3.92509        -3.65250
| 83>    H       -0.82839         4.68918        -4.94921
| 84>    H       -0.28101         5.90830        -2.19422
| 85>    H        0.51076         6.38242        -3.70646
| 86>    H       -1.22089         6.67721        -3.47472
| 87>    H       -2.93298         5.27237        -5.24605
| 88>    H       -4.43703         5.24708        -6.19078
| 89>    H       -4.78336         6.30850        -3.97478
| 90>    H       -4.24873         4.83851        -3.15874
| 91>    H       -5.74490         4.83319        -4.11439
| 92>    H       -6.56189         0.36850        -8.22482
| 93>    H       -3.71320        -2.27776        -8.98263
| 94>    H       -5.34115        -4.03737       -13.89566
| 95>    H       -8.29975        -0.19163       -12.75468
| 96>    H        1.18617        -1.55945        -1.78221
| 97>    H       -0.11161        -2.03801        -0.65137
| 98>    H        0.25680        -3.79875        -2.38171
| 99>    H       -1.35776        -3.08716        -2.54270
|100>    H       -0.07595        -2.61730        -3.65821
|101>    H       -6.26131         0.78411        -4.19068
|102>    H       -5.68759         2.46211        -4.10224
|103>    H       -8.55175         1.58781        -4.72633
|104>    H       -7.98855         2.33761        -3.22327
|105>    H       -7.98271         3.25560        -4.73951
|106> *
|107>
|108>                          ****END OF INPUT****

CARTESIAN COORDINATES (ANGSTROEM)
---------------------------------
  C      1.232320    2.777400    1.018110
  C      2.283550    2.330980    1.773630
  C      3.225360    1.252250    1.609750
  C      3.863530    1.030080    2.909330
  C      3.494060    2.072830    3.777120
  C      2.545420    2.976090    3.084640
  O      2.055140    3.997510    3.505820
  C      3.649270    0.703360    0.424960
  C      4.603810   -0.328720    0.328950
  N      5.343220   -1.196160    0.192550
  C      3.235660    1.164310   -0.840290
  N      2.964390    1.528580   -1.894800
  C      4.730770    0.040580    3.341850
  C      5.210880    0.120050    4.641200
  C      4.848170    1.163590    5.493090
  C      3.980560    2.156950    5.066250
  F      6.039600   -0.831430    5.084120
  F      5.341260    1.204320    6.736270
  C      0.541300    2.141590   -0.026470
  S     -0.494430    3.097540   -1.057210
  C     -0.929210    1.712380   -1.981690
  C     -0.342890    0.546750   -1.465130
  C      0.487480    0.797250   -0.377480
  C     -1.785840    1.759980   -3.099650
  C     -2.306630    2.908030   -3.691360
  C     -3.218620    2.622590   -4.732440
  C     -3.348460    1.247920   -4.943170
  S     -2.341190    0.320180   -3.873410
  O     -1.918040    4.151260   -3.263950
  O     -3.894470    3.456140   -5.548320
  C     -0.704800    4.625690   -3.858500
  C     -0.403300    5.991020   -3.270170
  C     -3.941880    4.854230   -5.298850
  C     -4.733250    5.225960   -4.051630
  C     -4.082480    0.622170   -5.994720
  S     -3.352320   -0.661630   -6.896400
  C     -4.677290   -0.689540   -8.047440
  C     -5.646420    0.225890   -7.681270
  C     -5.338480    0.946140   -6.521460
  C     -4.571510   -1.625220   -9.092240
  C     -5.326770   -1.815800  -10.220670
  C     -5.044390   -2.844100  -11.208910
  C     -5.888440   -2.584780  -12.374780
  C     -6.730970   -1.500540  -12.085410
  C     -6.452990   -0.997900  -10.720420
  O     -7.051970   -0.098720  -10.171770
  C     -4.196760   -3.912830  -11.080680
  C     -3.984160   -4.875730  -12.091240
  N     -3.765620   -5.690260  -12.869540
  C     -3.443330   -4.246670   -9.934120
  N     -2.812970   -4.609120   -9.045230
  C     -5.965510   -3.206450  -13.611910
  C     -6.889900   -2.724220  -14.526350
  C     -7.728280   -1.649980  -14.225970
  C     -7.656050   -1.023350  -12.992760
  F     -6.975380   -3.306150  -15.727820
  F     -8.607620   -1.220100  -15.138950
  O     -0.631810   -0.619570   -2.061580
  C      0.112970   -1.772340   -1.693130
  C     -0.292120   -2.895810   -2.630880
  O     -6.238500    1.799220   -5.993730
  C     -6.413890    1.798380   -4.582280
  C     -7.829150    2.275630   -4.296090
  H      0.840090    3.742370    1.324570
  H      5.038990   -0.784980    2.721110
  H      3.700660    2.965110    5.722930
  H      1.000070    0.031940    0.176250
  H      0.113870    3.925090   -3.652500
  H     -0.828390    4.689180   -4.949210
  H     -0.281010    5.908300   -2.194220
  H      0.510760    6.382420   -3.706460
  H     -1.220890    6.677210   -3.474720
  H     -2.932980    5.272370   -5.246050
  H     -4.437030    5.247080   -6.190780
  H     -4.783360    6.308500   -3.974780
  H     -4.248730    4.838510   -3.158740
  H     -5.744900    4.833190   -4.114390
  H     -6.561890    0.368500   -8.224820
  H     -3.713200   -2.277760   -8.982630
  H     -5.341150   -4.037370  -13.895660
  H     -8.299750   -0.191630  -12.754680
  H      1.186170   -1.559450   -1.782210
  H     -0.111610   -2.038010   -0.651370
  H      0.256800   -3.798750   -2.381710
  H     -1.357760   -3.087160   -2.542700
  H     -0.075950   -2.617300   -3.658210
  H     -6.261310    0.784110   -4.190680
  H     -5.687590    2.462110   -4.102240
  H     -8.551750    1.587810   -4.726330
  H     -7.988550    2.337610   -3.223270
  H     -7.982710    3.255600   -4.739510

 Total Charge           Charge          ....    0
 Multiplicity           Mult            ....    1
 Number of Electrons    NEL             ....  464
 Basis Dimension        Dim             .... 1034

ORBITAL ENERGIES
----------------

  NO   OCC          E(Eh)            E(eV)
   0   2.0000     -89.004706     -2421.9412
   1   2.0000     -88.994371     -2421.6599
   2   2.0000     -88.989186     -2421.5189
   3   2.0000     -24.837203      -675.8546
   4   2.0000     -24.836752      -675.8424
   5   2.0000     -24.832884      -675.7371
   6   2.0000     -24.831080      -675.6880
   7   2.0000     -19.306315      -525.3515
   8   2.0000     -19.295425      -525.0552
   9   2.0000     -19.293059      -524.9908
  10   2.0000     -19.277833      -524.5765
  11   2.0000     -19.258525      -524.0511
  12   2.0000     -19.257464      -524.0222
  13   2.0000     -14.457414      -393.4062
  14   2.0000     -14.457030      -393.3958
  15   2.0000     -14.451493      -393.2451
  16   2.0000     -14.449009      -393.1775
  17   2.0000     -10.424056      -283.6530
  18   2.0000     -10.423231      -283.6305
  19   2.0000     -10.418474      -283.5011
  20   2.0000     -10.417920      -283.4860
  21   2.0000     -10.408475      -283.2290
  22   2.0000     -10.407164      -283.1933
  23   2.0000     -10.388521      -282.6860
  24   2.0000     -10.388013      -282.6722
  25   2.0000     -10.384233      -282.5693
  26   2.0000     -10.384128      -282.5665
  27   2.0000     -10.380697      -282.4731
  28   2.0000     -10.378470      -282.4125
  29   2.0000     -10.377410      -282.3837
  30   2.0000     -10.372822      -282.2588
  31   2.0000     -10.372208      -282.2421
  32   2.0000     -10.366035      -282.0741
  33   2.0000     -10.365162      -282.0504
  34   2.0000     -10.364037      -282.0198
  35   2.0000     -10.362805      -281.9863
  36   2.0000     -10.360574      -281.9256
  37   2.0000     -10.358342      -281.8648
  38   2.0000     -10.357706      -281.8475
  39   2.0000     -10.356848      -281.8242
  40   2.0000     -10.356515      -281.8151
  41   2.0000     -10.356115      -281.8042
  42   2.0000     -10.356068      -281.8029
  43   2.0000     -10.353607      -281.7360
  44   2.0000     -10.352458      -281.7047
  45   2.0000     -10.350274      -281.6453
  46   2.0000     -10.349725      -281.6303
  47   2.0000     -10.348493      -281.5968
  48   2.0000     -10.347142      -281.5600
  49   2.0000     -10.346682      -281.5475
  50   2.0000     -10.343782      -281.4686
  51   2.0000     -10.341090      -281.3954
  52   2.0000     -10.340964      -281.3919
  53   2.0000     -10.340837      -281.3885
  54   2.0000     -10.338556      -281.3264
  55   2.0000     -10.336002      -281.2569
  56   2.0000     -10.334713      -281.2218
  57   2.0000     -10.333042      -281.1764
  58   2.0000     -10.315744      -280.7057
  59   2.0000     -10.301634      -280.3217
  60   2.0000     -10.301086      -280.3068
  61   2.0000     -10.297555      -280.2107
  62   2.0000     -10.292594      -280.0757
  63   2.0000      -8.117479      -220.8878
  64   2.0000      -8.107044      -220.6039
  65   2.0000      -8.103367      -220.5038
  66   2.0000      -6.077014      -165.3640
  67   2.0000      -6.072874      -165.2513
  68   2.0000      -6.069776      -165.1670
  69   2.0000      -6.066650      -165.0819
  70   2.0000      -6.062803      -164.9773
  71   2.0000      -6.062619      -164.9723
  72   2.0000      -6.059016      -164.8742
  73   2.0000      -6.058804      -164.8684
  74   2.0000      -6.055511      -164.7788
  75   2.0000      -1.367585       -37.2139
  76   2.0000      -1.362405       -37.0729
  77   2.0000      -1.352526       -36.8041
  78   2.0000      -1.347329       -36.6627
  79   2.0000      -1.215548       -33.0767
  80   2.0000      -1.206557       -32.8321
  81   2.0000      -1.190326       -32.3904
  82   2.0000      -1.184974       -32.2448
  83   2.0000      -1.176912       -32.0254
  84   2.0000      -1.175296       -31.9814
  85   2.0000      -1.066800       -29.0291
  86   2.0000      -1.059929       -28.8421
  87   2.0000      -1.048973       -28.5440
  88   2.0000      -1.046548       -28.4780
  89   2.0000      -1.040999       -28.3270
  90   2.0000      -1.038622       -28.2624
  91   2.0000      -1.035007       -28.1640
  92   2.0000      -1.031328       -28.0639
  93   2.0000      -1.019231       -27.7347
  94   2.0000      -1.001060       -27.2402
  95   2.0000      -0.995088       -27.0777
  96   2.0000      -0.954821       -25.9820
  97   2.0000      -0.945944       -25.7404
  98   2.0000      -0.941743       -25.6261
  99   2.0000      -0.932439       -25.3730
 100   2.0000      -0.917829       -24.9754
 101   2.0000      -0.916325       -24.9345
 102   2.0000      -0.913245       -24.8506
 103   2.0000      -0.911587       -24.8055
 104   2.0000      -0.909722       -24.7548
 105   2.0000      -0.899701       -24.4821
 106   2.0000      -0.891920       -24.2704
 107   2.0000      -0.879329       -23.9278
 108   2.0000      -0.868034       -23.6204
 109   2.0000      -0.856555       -23.3080
 110   2.0000      -0.852294       -23.1921
 111   2.0000      -0.844059       -22.9680
 112   2.0000      -0.827004       -22.5039
 113   2.0000      -0.815284       -22.1850
 114   2.0000      -0.811082       -22.0707
 115   2.0000      -0.805681       -21.9237
 116   2.0000      -0.782146       -21.2833
 117   2.0000      -0.774488       -21.0749
 118   2.0000      -0.769163       -20.9300
 119   2.0000      -0.759503       -20.6671
 120   2.0000      -0.756824       -20.5942
 121   2.0000      -0.754945       -20.5431
 122   2.0000      -0.743330       -20.2271
 123   2.0000      -0.740735       -20.1564
 124   2.0000      -0.731303       -19.8998
 125   2.0000      -0.729107       -19.8400
 126   2.0000      -0.721745       -19.6397
 127   2.0000      -0.713388       -19.4123
 128   2.0000      -0.702394       -19.1131
 129   2.0000      -0.700670       -19.0662
 130   2.0000      -0.690259       -18.7829
 131   2.0000      -0.684883       -18.6366
 132   2.0000      -0.681369       -18.5410
 133   2.0000      -0.679741       -18.4967
 134   2.0000      -0.677635       -18.4394
 135   2.0000      -0.671215       -18.2647
 136   2.0000      -0.668705       -18.1964
 137   2.0000      -0.652407       -17.7529
 138   2.0000      -0.650017       -17.6879
 139   2.0000      -0.649152       -17.6643
 140   2.0000      -0.642096       -17.4723
 141   2.0000      -0.636425       -17.3180
 142   2.0000      -0.631235       -17.1768
 143   2.0000      -0.629993       -17.1430
 144   2.0000      -0.627721       -17.0811
 145   2.0000      -0.623519       -16.9668
 146   2.0000      -0.622702       -16.9446
 147   2.0000      -0.621298       -16.9064
 148   2.0000      -0.611008       -16.6264
 149   2.0000      -0.603735       -16.4285
 150   2.0000      -0.598713       -16.2918
 151   2.0000      -0.595326       -16.1996
 152   2.0000      -0.590819       -16.0770
 153   2.0000      -0.590405       -16.0657
 154   2.0000      -0.587147       -15.9771
 155   2.0000      -0.586745       -15.9661
 156   2.0000      -0.584378       -15.9017
 157   2.0000      -0.582568       -15.8525
 158   2.0000      -0.581739       -15.8299
 159   2.0000      -0.577205       -15.7065
 160   2.0000      -0.574583       -15.6352
 161   2.0000      -0.573451       -15.6044
 162   2.0000      -0.570910       -15.5353
 163   2.0000      -0.567715       -15.4483
 164   2.0000      -0.566338       -15.4108
 165   2.0000      -0.564385       -15.3577
 166   2.0000      -0.558797       -15.2056
 167   2.0000      -0.555683       -15.1209
 168   2.0000      -0.552185       -15.0257
 169   2.0000      -0.542431       -14.7603
 170   2.0000      -0.541325       -14.7302
 171   2.0000      -0.536547       -14.6002
 172   2.0000      -0.536081       -14.5875
 173   2.0000      -0.533110       -14.5067
 174   2.0000      -0.531895       -14.4736
 175   2.0000      -0.529145       -14.3988
 176   2.0000      -0.525537       -14.3006
 177   2.0000      -0.521490       -14.1905
 178   2.0000      -0.518848       -14.1186
 179   2.0000      -0.516573       -14.0567
 180   2.0000      -0.515418       -14.0252
 181   2.0000      -0.512710       -13.9515
 182   2.0000      -0.507725       -13.8159
 183   2.0000      -0.506402       -13.7799
 184   2.0000      -0.503561       -13.7026
 185   2.0000      -0.500460       -13.6182
 186   2.0000      -0.497493       -13.5375
 187   2.0000      -0.496844       -13.5198
 188   2.0000      -0.495430       -13.4813
 189   2.0000      -0.494817       -13.4647
 190   2.0000      -0.493340       -13.4245
 191   2.0000      -0.491604       -13.3772
 192   2.0000      -0.490124       -13.3369
 193   2.0000      -0.489868       -13.3300
 194   2.0000      -0.488349       -13.2886
 195   2.0000      -0.484921       -13.1954
 196   2.0000      -0.483509       -13.1570
 197   2.0000      -0.483118       -13.1463
 198   2.0000      -0.480123       -13.0648
 199   2.0000      -0.477415       -12.9911
 200   2.0000      -0.472964       -12.8700
 201   2.0000      -0.470723       -12.8090
 202   2.0000      -0.469526       -12.7765
 203   2.0000      -0.467060       -12.7094
 204   2.0000      -0.463575       -12.6145
 205   2.0000      -0.461821       -12.5668
 206   2.0000      -0.461104       -12.5473
 207   2.0000      -0.456315       -12.4170
 208   2.0000      -0.452046       -12.3008
 209   2.0000      -0.450430       -12.2568
 210   2.0000      -0.446201       -12.1418
 211   2.0000      -0.444348       -12.0913
 212   2.0000      -0.442978       -12.0540
 213   2.0000      -0.441674       -12.0186
 214   2.0000      -0.439647       -11.9634
 215   2.0000      -0.436102       -11.8669
 216   2.0000      -0.417921       -11.3722
 217   2.0000      -0.406748       -11.0682
 218   2.0000      -0.400159       -10.8889
 219   2.0000      -0.395499       -10.7621
 220   2.0000      -0.386959       -10.5297
 221   2.0000      -0.382082       -10.3970
 222   2.0000      -0.378072       -10.2879
 223   2.0000      -0.374836       -10.1998
 224   2.0000      -0.363860        -9.9011
 225   2.0000      -0.357305        -9.7228
 226   2.0000      -0.350424        -9.5355
 227   2.0000      -0.346717        -9.4347
 228   2.0000      -0.340718        -9.2714
 229   2.0000      -0.332702        -9.0533
 230   2.0000      -0.314673        -8.5627
 231   2.0000      -0.272055        -7.4030
 232   0.0000      -0.081980        -2.2308
 233   0.0000      -0.064591        -1.7576
 234   0.0000      -0.044059        -1.1989
 235   0.0000      -0.036397        -0.9904
 236   0.0000      -0.001565        -0.0426

MULLIKEN ATOMIC CHARGES
-----------------------
   0 C :    0.122158
   1 C :   -0.186228
   2 C :    0.248940
   3 C :    0.005680
   4 C :   -0.039125
   5 C :    0.197180
   6 O :   -0.165351
   7 C :   -0.381095
   8 C :   -0.120203
   9 N :    0.111784
  10 C :   -0.145657
  11 N :    0.135000
  12 C :   -0.091015
  13 C :    0.246032
  14 C :    0.240144
  15 C :   -0.092305
  16 F :   -0.179340
  17 F :   -0.182543
  18 C :   -0.131732
  19 S :    0.186640
  20 C :   -0.121837
  21 C :    0.235678
  22 C :   -0.055249
  23 C :   -0.097903
  24 C :    0.071647
  25 C :    0.227685
  26 C :   -0.189857
  27 S :    0.203872
  28 O :   -0.385847
  29 O :   -0.323220
  30 C :    0.115758
  31 C :   -0.025985
  32 C :    0.160091
  33 C :   -0.094571
  34 C :   -0.174599
  35 S :    0.156695
  36 C :   -0.136442
  37 C :   -0.012045
  38 C :    0.235146
  39 C :    0.086638
  40 C :   -0.136210
  41 C :    0.273056
  42 C :    0.029683
  43 C :   -0.060057
  44 C :    0.226425
  45 O :   -0.177401
  46 C :   -0.375641
  47 C :   -0.129344
  48 N :    0.106794
  49 C :   -0.133954
  50 N :    0.109672
  51 C :   -0.086366
  52 C :    0.245075
  53 C :    0.244998
  54 C :   -0.098256
  55 F :   -0.179929
  56 F :   -0.183814
  57 O :   -0.349678
  58 C :    0.101890
  59 C :   -0.042397
  60 O :   -0.331712
  61 C :    0.137219
  62 C :   -0.046955
  63 H :    0.047196
  64 H :    0.046515
  65 H :    0.044437
  66 H :    0.024792
  67 H :    0.052181
  68 H :    0.039749
  69 H :    0.041703
  70 H :    0.048820
  71 H :    0.039794
  72 H :    0.017649
  73 H :    0.050548
  74 H :    0.045133
  75 H :    0.056014
  76 H :    0.048877
  77 H :    0.043206
  78 H :    0.031362
  79 H :    0.044865
  80 H :    0.042093
  81 H :    0.048353
  82 H :    0.040156
  83 H :    0.047863
  84 H :    0.052278
  85 H :    0.057494
  86 H :    0.030994
  87 H :    0.030226
  88 H :    0.044706
  89 H :    0.038269
  90 H :    0.047008
Sum of atomic charges:   -0.0000000

LOEWDIN ATOMIC CHARGES
----------------------
   0 C :    0.059065
   1 C :   -0.117150
   2 C :    0.069593
   3 C :   -0.017702
   4 C :   -0.052349
   5 C :    0.091391
   6 O :   -0.144056
   7 C :   -0.153010
   8 C :   -0.018812
   9 N :   -0.052733
  10 C :   -0.014017
  11 N :   -0.046685
  12 C :   -0.021878
  13 C :    0.078553
  14 C :    0.073762
  15 C :   -0.004923
  16 F :   -0.046423
  17 F :   -0.048626
  18 C :   -0.193571
  19 S :    0.497308
  20 C :   -0.190007
  21 C :    0.019888
  22 C :   -0.048170
  23 C :   -0.203805
  24 C :   -0.025126
  25 C :    0.012214
  26 C :   -0.244368
  27 S :    0.476710
  28 O :   -0.137687
  29 O :   -0.089842
  30 C :    0.077184
  31 C :   -0.064279
  32 C :    0.086209
  33 C :   -0.077927
  34 C :   -0.201771
  35 S :    0.443734
  36 C :   -0.188885
  37 C :   -0.012329
  38 C :    0.013275
  39 C :    0.060551
  40 C :   -0.114956
  41 C :    0.080391
  42 C :   -0.020125
  43 C :   -0.049623
  44 C :    0.095943
  45 O :   -0.139841
  46 C :   -0.146951
  47 C :   -0.014097
  48 N :   -0.053399
  49 C :   -0.019358
  50 N :   -0.051418
  51 C :   -0.018059
  52 C :    0.077251
  53 C :    0.074716
  54 C :   -0.007074
  55 F :   -0.047580
  56 F :   -0.049613
  57 O :   -0.101895
  58 C :    0.086574
  59 C :   -0.061845
  60 O :   -0.105351
  61 C :    0.085825
  62 C :   -0.066240
  63 H :    0.050010
  64 H :    0.053617
  65 H :    0.056620
  66 H :    0.036378
  67 H :    0.014036
  68 H :    0.013234
  69 H :    0.026599
  70 H :    0.038142
  71 H :    0.029305
  72 H :    0.012430
  73 H :    0.031176
  74 H :    0.037509
  75 H :    0.029232
  76 H :    0.029311
  77 H :    0.042141
  78 H :    0.045046
  79 H :    0.053806
  80 H :    0.055420
  81 H :    0.022067
  82 H :    0.017378
  83 H :    0.038012
  84 H :    0.034257
  85 H :    0.036499
  86 H :    0.017195
  87 H :    0.009709
  88 H :    0.031497
  89 H :    0.032648
  90 H :    0.030146

  Mayer bond orders larger than 0.100000
B(  0-C ,  1-C ) :   1.6354 B(  0-C , 18-C ) :   1.1892 B(  0-C , 63-H ) :   0.9291
B(  1-C ,  2-C ) :   1.0777 B(  1-C ,  5-C ) :   0.9602 B(  2-C ,  3-C ) :   1.0260
B(  2-C ,  7-C ) :   1.6364 B(  3-C ,  4-C ) :   1.3447 B(  3-C , 12-C ) :   1.3398
B(  4-C ,  5-C ) :   0.9300 B(  4-C , 15-C ) :   1.3457 B(  5-C ,  6-O ) :   2.2470
B(  7-C ,  8-C ) :   1.1147 B(  7-C , 10-C ) :   1.1630 B(  8-C ,  9-N ) :   2.9875
B( 10-C , 11-N ) :   2.9965 B( 12-C , 13-C ) :   1.3482 B( 12-C , 64-H ) :   0.9908
B( 13-C , 14-C ) :   1.2946 B( 13-C , 16-F ) :   1.1122 B( 14-C , 15-C ) :   1.3321
B( 14-C , 17-F ) :   1.1019 B( 15-C , 65-H ) :   1.0147 B( 18-C , 19-S ) :   1.0905
B( 18-C , 22-C ) :   1.3652 B( 19-S , 20-C ) :   1.1644 B( 20-C , 21-C ) :   1.3809
B( 20-C , 23-C ) :   1.1986 B( 21-C , 22-C ) :   1.3139 B( 21-C , 57-O ) :   1.1533
B( 22-C , 66-H ) :   0.9943 B( 23-C , 24-C ) :   1.4453 B( 23-C , 26-C ) :   0.1198
B( 23-C , 27-S ) :   1.1390 B( 24-C , 25-C ) :   1.2426 B( 24-C , 28-O ) :   1.1050
B( 25-C , 26-C ) :   1.4760 B( 25-C , 29-O ) :   1.1983 B( 26-C , 27-S ) :   1.0973
B( 26-C , 34-C ) :   1.0670 B( 28-O , 30-C ) :   0.8734 B( 29-O , 32-C ) :   0.9125
B( 30-C , 31-C ) :   1.0974 B( 30-C , 67-H ) :   0.9509 B( 30-C , 68-H ) :   0.9474
B( 31-C , 69-H ) :   0.9687 B( 31-C , 70-H ) :   0.9650 B( 31-C , 71-H ) :   0.9707
B( 32-C , 33-C ) :   1.0942 B( 32-C , 72-H ) :   0.9562 B( 32-C , 73-H ) :   0.9593
B( 33-C , 74-H ) :   0.9624 B( 33-C , 75-H ) :   0.9668 B( 33-C , 76-H ) :   0.9635
B( 34-C , 35-S ) :   1.1560 B( 34-C , 38-C ) :   1.4127 B( 35-S , 36-C ) :   1.0890
B( 36-C , 37-C ) :   1.4074 B( 36-C , 39-C ) :   1.2360 B( 37-C , 38-C ) :   1.2805
B( 37-C , 77-H ) :   0.9939 B( 38-C , 60-O ) :   1.1843 B( 39-C , 40-C ) :   1.6089
B( 39-C , 78-H ) :   0.9165 B( 40-C , 41-C ) :   1.0952 B( 40-C , 44-C ) :   0.9488
B( 41-C , 42-C ) :   1.0155 B( 41-C , 46-C ) :   1.6429 B( 42-C , 43-C ) :   1.3457
B( 42-C , 51-C ) :   1.3282 B( 43-C , 44-C ) :   0.9607 B( 43-C , 54-C ) :   1.3420
B( 44-C , 45-O ) :   2.1689 B( 46-C , 47-C ) :   1.1266 B( 46-C , 49-C ) :   1.1283
B( 47-C , 48-N ) :   2.9754 B( 49-C , 50-N ) :   2.9751 B( 51-C , 52-C ) :   1.3529
B( 51-C , 79-H ) :   0.9904 B( 52-C , 53-C ) :   1.2906 B( 52-C , 55-F ) :   1.1143
B( 53-C , 54-C ) :   1.3301 B( 53-C , 56-F ) :   1.1003 B( 54-C , 80-H ) :   1.0162
B( 57-O , 58-C ) :   0.9003 B( 58-C , 59-C ) :   1.0919 B( 58-C , 81-H ) :   0.9546
B( 58-C , 82-H ) :   0.9557 B( 59-C , 83-H ) :   0.9639 B( 59-C , 84-H ) :   0.9730
B( 59-C , 85-H ) :   0.9726 B( 60-O , 61-C ) :   0.9130 B( 61-C , 62-C ) :   1.1044
B( 61-C , 86-H ) :   0.9466 B( 61-C , 87-H ) :   0.9442 B( 62-C , 88-H ) :   0.9702
B( 62-C , 89-H ) :   0.9660 B( 62-C , 90-H ) :   0.9702

-----------------------------------------------------------------------------
         ABSORPTION SPECTRUM VIA TRANSITION ELECTRIC DIPOLE MOMENTS
-----------------------------------------------------------------------------
State   Energy  Wavelength   fosc         T2         TX        TY        TZ
        (cm-1)    (nm)                  (au**2)     (au)      (au)      (au)
-----------------------------------------------------------------------------
   0   18047.0    554.1   1.894399516  34.55749   3.53591   1.16630   4.54913
   1   24876.0    402.0   0.625885206   8.28302   0.63345  -2.10189  -1.86114
   2   28893.6    346.1   0.146028536   1.66384   1.02788  -0.69295   0.35654
   3   29849.6    335.0   0.084020306   0.92666   0.33990  -0.70011  -0.56654
   4   30986.4    322.7   0.056270830   0.59784  -0.09863  -0.42688  -0.63709
   5   31353.4    318.9   0.011684099   0.12268   0.12765  -0.24151  -0.21923
   6   31811.9    314.3   0.031477695   0.32575  -0.07158  -0.53892   0.17376
   7   32595.2    306.8   0.041870596   0.42289  -0.50451   0.33212   0.24094
   8   33088.6    302.2   0.201915571   2.00894  -0.89571   0.53259  -0.96072
   9   33663.0    297.1   0.047161439   0.46122   0.53658  -0.01016   0.41618
  10   34391.9    290.8   0.287656325   2.75355  -0.50108   0.63585  -1.44850
  11   36056.7    277.3   0.131099761   1.19699  -0.33695   0.52655   0.89789
  12   36461.2    274.3   0.148296120   1.33898  -0.65795   0.15046  -0.93992
  13   36734.8    272.2   0.217000251   1.94473   0.69481  -0.19829   1.19275
  14   36779.3    271.9   0.030306499   0.27127   0.26062  -0.43115  -0.13213
  15   37883.8    264.0   0.002928571   0.02545  -0.07131   0.10843   0.09278
  16   38708.0    258.3   0.287370632   2.44409   1.10721  -0.77609   0.78477
  17   39763.3    251.5   0.403555180   3.34115   0.02991  -0.57419  -1.73510
  18   40114.7    249.3   0.299427390   2.45733   0.76207  -1.09473  -0.82350

Dispersion correction           -0.056991997
FINAL SINGLE POINT ENERGY     -4030.609382989898

DIPOLE MOMENT
-------------
                                X             Y             Z
Electronic contribution:     24.26462     -40.44560     -14.18715
Nuclear contribution   :    -25.59494      43.03802      16.25123
                        -----------------------------------------
Total Dipole Moment    :     -1.33033       2.59243       2.06409
                        -----------------------------------------
Magnitude (a.u.)       :      3.57084
Magnitude (Debye)      :      9.07635

Rotational constants in cm-1:     0.002536     0.000358     0.000326
Rotational constants in MHz :    76.018344    10.743197     9.768092

                             ****ORCA TERMINATED NORMALLY****
TOTAL RUN TIME: 0 days 0 hours 8 minutes 24 seconds 114 msec
