                         Program Version 4.2.0 -  RELEASE  -
|  1> # ORCA input file
|  2> # SCF done       -221.998710941548          0.000747285540
|  3> ! wb97x-d3 def2-SVP def2/J RIJCOSX Grid4 TightSCF
|  4> %maxcore 5000
|  5> %tddft
|  6>     Mode sTDDFT
|  7>     Ethresh 5.0
|  8>     maxcore 5000
|  9> end
| 10>
| 11> %pal
| 12>   nprocs 6
| 13>   end
| 14> * xyz 0 1
| 15>    C       -8.01278         1.41043         3.32936
| 16>    O       -7.75863         2.56646         3.61684
| 17>    C       -9.33656         0.76015         3.43726
| 18>    C      -10.52421         1.30128         3.88591
| 19>    C      -11.63965         0.47890         3.89866
| 20>    C      -11.55036        -0.84482         3.46975
| 21>    C      -10.35566        -1.38702         3.01771
| 22>    C       -9.23540        -0.57170         3.00263
| 23>    C       -7.85112        -0.83044         2.59780
| 24>    C       -7.38855        -2.02463         2.10529
| 25>    C       -6.06437        -2.29532         1.70289
| 26>    N       -5.01349        -2.60139         1.35311
| 27>    C       -8.19182        -3.17057         1.92628
| 28>    N       -8.78561        -4.13816         1.75601
| 29>    C       -7.10277         0.38824         2.81446
| 30>    F      -12.64285        -1.61746         3.49367
| 31>    C       -5.75208         0.55171         2.59421
| 32>    F      -12.81344         0.95999         4.32784
| 33>    C       -1.33945        19.01008        10.51578
| 34>    O       -1.85612        18.13401         9.84550
| 35>    C       -1.99760        20.25106        10.98022
| 36>    C       -3.29007        20.67599        10.74979
| 37>    C       -3.67304        21.89206        11.29363
| 38>    C       -2.77459        22.64784        12.04512
| 39>    C       -1.47542        22.21869        12.27711
| 40>    C       -1.08443        21.00459        11.73622
| 41>    C        0.18998        20.28324        11.78960
| 42>    C        1.30476        20.71044        12.46689
| 43>    C        2.53608        20.02787        12.54582
| 44>    N        3.56896        19.53760        12.66204
| 45>    C        1.37182        21.91343        13.20047
| 46>    N        1.49261        22.87605        13.81406
| 47>    C        0.03061        19.06815        11.02276
| 48>    F       -3.16945        23.81960        12.55792
| 49>    C        1.01577        18.13233        10.78823
| 50>    F       -4.91787        22.34470        11.09373
| 51>    C        0.98449        16.93562        10.07430
| 52>    S       -0.40285        16.22876         9.25437
| 53>    C        0.56482        14.90675         8.77409
| 54>    C        1.90574        14.98618         9.21160
| 55>    C        2.13052        16.12718         9.93959
| 56>    C        0.39899        13.72404         8.02915
| 57>    C        1.61964        13.04499         7.97605
| 58>    C        2.70253        13.79741         8.71966
| 59>    S       -0.85510        12.88955         7.20440
| 60>    C        0.26286        11.61215         6.78508
| 61>    C        1.54290        11.85831         7.26863
| 62>    C       -0.17365        10.46363         6.05748
| 63>    C       -1.51996        10.28596         5.70620
| 64>    C       -1.96589         9.14156         5.01001
| 65>    C       -1.12665         8.06577         4.71199
| 66>    C        0.24780         8.23510         5.02476
| 67>    C        0.72104         9.42879         5.67444
| 68>    N        1.23421         7.37438         4.78628
| 69>    S        2.61878         7.99951         5.31354
| 70>    N        2.03647         9.38935         5.87452
| 71>    C       -1.63227         6.83897         4.17670
| 72>    S       -3.34485         6.48472         4.23757
| 73>    C       -3.03918         4.91062         3.62701
| 74>    C       -1.68379         4.67938         3.37002
| 75>    C       -0.89371         5.77726         3.67378
| 76>    C       -3.78165         3.75989         3.30122
| 77>    C       -2.89351         2.77675         2.81873
| 78>    C       -1.46988         3.29230         2.80547
| 79>    S       -5.40626         3.24163         3.38972
| 80>    C       -4.92490         1.65698         2.79262
| 81>    C       -3.53967         1.59839         2.54325
| 82>    O       -2.36017        11.30821         6.02606
| 83>    O       -3.28899         9.06565         4.62374
| 84>    C       -3.58873        11.03059         6.69549
| 85>    C       -3.37165        10.30708         8.01695
| 86>    C       -3.53172         9.44139         3.26877
| 87>    C       -3.34279        10.92987         3.01077
| 88>    C       -0.61221         2.40686         3.73033
| 89>    C        0.83986         2.84246         3.87529
| 90>    C       -0.91366         3.42593         1.37363
| 91>    C       -0.71204         2.10789         0.63848
| 92>    C        3.26501        12.89882         9.84553
| 93>    C        3.70930        13.61929        11.11289
| 94>    C        3.77035        14.21498         7.68549
| 95>    C        4.94975        15.00428         8.23455
| 96>    H      -10.58721         2.32546         4.21720
| 97>    H      -10.34201        -2.41593         2.69831
| 98>    H       -5.21923        -0.31333         2.21853
| 99>    H       -3.98187        20.08848        10.16759
|100>    H       -0.82130        22.84215        12.86391
|101>    H        1.98811        18.34439        11.21576
|102>    H        3.06242        16.41806        10.38986
|103>    H        2.35353        11.17595         7.09722
|104>    H        0.17047         5.84652         3.55320
|105>    H       -3.07796         0.69360         2.18957
|106>    H       -4.01541        12.02202         6.86364
|107>    H       -4.25481        10.44740         6.05451
|108>    H       -2.69181        10.87161         8.65092
|109>    H       -4.32293        10.19717         8.52905
|110>    H       -2.95322         9.31747         7.84318
|111>    H       -2.88030         8.86186         2.60098
|112>    H       -4.56864         9.14708         3.09263
|113>    H       -2.31017        11.22515         3.18536
|114>    H       -3.59678        11.14678         1.97688
|115>    H       -3.98480        11.51746         3.66152
|116>    H       -1.08337         2.40761         4.71668
|117>    H       -0.65049         1.38434         3.35213
|118>    H        0.90645         3.83905         4.30182
|119>    H        1.35655         2.15450         4.54089
|120>    H        1.35375         2.83426         2.91812
|121>    H       -1.61199         4.04597         0.80530
|122>    H        0.03325         3.96519         1.42599
|123>    H       -1.65216         1.57371         0.53545
|124>    H       -0.32578         2.30605        -0.35884
|125>    H       -0.00030         1.46980         1.15455
|126>    H        2.48822        12.18204        10.12373
|127>    H        4.10034        12.32886         9.43489
|128>    H        2.86490        14.10172        11.59828
|129>    H        4.12880        12.89414        11.80722
|130>    H        4.46616        14.36928        10.90835
|131>    H        4.13981        13.30467         7.20776
|132>    H        3.27108        14.81056         6.91654
|133>    H        5.52481        14.41279         8.94110
|134>    H        5.60890        15.28052         7.41422
|135>    H        4.61694        15.91679         8.72052
|136> *
|137>
|138>                          ****END OF INPUT****

CARTESIAN COORDINATES (ANGSTROEM)
---------------------------------
  C     -8.012780    1.410430    3.329360
  O     -7.758630    2.566460    3.616840
  C     -9.336560    0.760150    3.437260
  C    -10.524210    1.301280    3.885910
  C    -11.639650    0.478900    3.898660
  C    -11.550360   -0.844820    3.469750
  C    -10.355660   -1.387020    3.017710
  C     -9.235400   -0.571700    3.002630
  C     -7.851120   -0.830440    2.597800
  C     -7.388550   -2.024630    2.105290
  C     -6.064370   -2.295320    1.702890
  N     -5.013490   -2.601390    1.353110
  C     -8.191820   -3.170570    1.926280
  N     -8.785610   -4.138160    1.756010
  C     -7.102770    0.388240    2.814460
  F    -12.642850   -1.617460    3.493670
  C     -5.752080    0.551710    2.594210
  F    -12.813440    0.959990    4.327840
  C     -1.339450   19.010080   10.515780
  O     -1.856120   18.134010    9.845500
  C     -1.997600   20.251060   10.980220
  C     -3.290070   20.675990   10.749790
  C     -3.673040   21.892060   11.293630
  C     -2.774590   22.647840   12.045120
  C     -1.475420   22.218690   12.277110
  C     -1.084430   21.004590   11.736220
  C      0.189980   20.283240   11.789600
  C      1.304760   20.710440   12.466890
  C      2.536080   20.027870   12.545820
  N      3.568960   19.537600   12.662040
  C      1.371820   21.913430   13.200470
  N      1.492610   22.876050   13.814060
  C      0.030610   19.068150   11.022760
  F     -3.169450   23.819600   12.557920
  C      1.015770   18.132330   10.788230
  F     -4.917870   22.344700   11.093730
  C      0.984490   16.935620   10.074300
  S     -0.402850   16.228760    9.254370
  C      0.564820   14.906750    8.774090
  C      1.905740   14.986180    9.211600
  C      2.130520   16.127180    9.939590
  C      0.398990   13.724040    8.029150
  C      1.619640   13.044990    7.976050
  C      2.702530   13.797410    8.719660
  S     -0.855100   12.889550    7.204400
  C      0.262860   11.612150    6.785080
  C      1.542900   11.858310    7.268630
  C     -0.173650   10.463630    6.057480
  C     -1.519960   10.285960    5.706200
  C     -1.965890    9.141560    5.010010
  C     -1.126650    8.065770    4.711990
  C      0.247800    8.235100    5.024760
  C      0.721040    9.428790    5.674440
  N      1.234210    7.374380    4.786280
  S      2.618780    7.999510    5.313540
  N      2.036470    9.389350    5.874520
  C     -1.632270    6.838970    4.176700
  S     -3.344850    6.484720    4.237570
  C     -3.039180    4.910620    3.627010
  C     -1.683790    4.679380    3.370020
  C     -0.893710    5.777260    3.673780
  C     -3.781650    3.759890    3.301220
  C     -2.893510    2.776750    2.818730
  C     -1.469880    3.292300    2.805470
  S     -5.406260    3.241630    3.389720
  C     -4.924900    1.656980    2.792620
  C     -3.539670    1.598390    2.543250
  O     -2.360170   11.308210    6.026060
  O     -3.288990    9.065650    4.623740
  C     -3.588730   11.030590    6.695490
  C     -3.371650   10.307080    8.016950
  C     -3.531720    9.441390    3.268770
  C     -3.342790   10.929870    3.010770
  C     -0.612210    2.406860    3.730330
  C      0.839860    2.842460    3.875290
  C     -0.913660    3.425930    1.373630
  C     -0.712040    2.107890    0.638480
  C      3.265010   12.898820    9.845530
  C      3.709300   13.619290   11.112890
  C      3.770350   14.214980    7.685490
  C      4.949750   15.004280    8.234550
  H    -10.587210    2.325460    4.217200
  H    -10.342010   -2.415930    2.698310
  H     -5.219230   -0.313330    2.218530
  H     -3.981870   20.088480   10.167590
  H     -0.821300   22.842150   12.863910
  H      1.988110   18.344390   11.215760
  H      3.062420   16.418060   10.389860
  H      2.353530   11.175950    7.097220
  H      0.170470    5.846520    3.553200
  H     -3.077960    0.693600    2.189570
  H     -4.015410   12.022020    6.863640
  H     -4.254810   10.447400    6.054510
  H     -2.691810   10.871610    8.650920
  H     -4.322930   10.197170    8.529050
  H     -2.953220    9.317470    7.843180
  H     -2.880300    8.861860    2.600980
  H     -4.568640    9.147080    3.092630
  H     -2.310170   11.225150    3.185360
  H     -3.596780   11.146780    1.976880
  H     -3.984800   11.517460    3.661520
  H     -1.083370    2.407610    4.716680
  H     -0.650490    1.384340    3.352130
  H      0.906450    3.839050    4.301820
  H      1.356550    2.154500    4.540890
  H      1.353750    2.834260    2.918120
  H     -1.611990    4.045970    0.805300
  H      0.033250    3.965190    1.425990
  H     -1.652160    1.573710    0.535450
  H     -0.325780    2.306050   -0.358840
  H     -0.000300    1.469800    1.154550
  H      2.488220   12.182040   10.123730
  H      4.100340   12.328860    9.434890
  H      2.864900   14.101720   11.598280
  H      4.128800   12.894140   11.807220
  H      4.466160   14.369280   10.908350
  H      4.139810   13.304670    7.207760
  H      3.271080   14.810560    6.916540
  H      5.524810   14.412790    8.941100
  H      5.608900   15.280520    7.414220
  H      4.616940   15.916790    8.720520

 Total Charge           Charge          ....    0
 Multiplicity           Mult            ....    1
 Number of Electrons    NEL             ....  602
 Basis Dimension        Dim             .... 1354

ORBITAL ENERGIES
----------------

  NO   OCC          E(Eh)            E(eV)
   0   2.0000     -89.059911     -2423.4434
   1   2.0000     -88.995946     -2421.7028
   2   2.0000     -88.995463     -2421.6897
   3   2.0000     -88.991536     -2421.5828
   4   2.0000     -88.990430     -2421.5527
   5   2.0000     -24.832063      -675.7148
   6   2.0000     -24.830199      -675.6641
   7   2.0000     -24.829444      -675.6435
   8   2.0000     -24.827514      -675.5910
   9   2.0000     -19.303478      -525.2743
  10   2.0000     -19.300574      -525.1953
  11   2.0000     -19.257807      -524.0316
  12   2.0000     -19.253608      -523.9173
  13   2.0000     -14.491333      -394.3292
  14   2.0000     -14.489414      -394.2770
  15   2.0000     -14.451798      -393.2534
  16   2.0000     -14.448302      -393.1583
  17   2.0000     -14.447192      -393.1281
  18   2.0000     -14.443740      -393.0342
  19   2.0000     -10.417545      -283.4758
  20   2.0000     -10.416894      -283.4581
  21   2.0000     -10.414488      -283.3926
  22   2.0000     -10.413806      -283.3741
  23   2.0000     -10.404917      -283.1322
  24   2.0000     -10.401027      -283.0263
  25   2.0000     -10.397536      -282.9313
  26   2.0000     -10.395240      -282.8689
  27   2.0000     -10.379343      -282.4363
  28   2.0000     -10.375674      -282.3364
  29   2.0000     -10.374692      -282.3097
  30   2.0000     -10.374387      -282.3014
  31   2.0000     -10.374372      -282.3010
  32   2.0000     -10.371159      -282.2136
  33   2.0000     -10.370367      -282.1920
  34   2.0000     -10.364240      -282.0253
  35   2.0000     -10.358389      -281.8661
  36   2.0000     -10.356335      -281.8102
  37   2.0000     -10.354105      -281.7495
  38   2.0000     -10.353380      -281.7298
  39   2.0000     -10.353284      -281.7272
  40   2.0000     -10.352070      -281.6941
  41   2.0000     -10.352018      -281.6927
  42   2.0000     -10.350717      -281.6573
  43   2.0000     -10.349973      -281.6371
  44   2.0000     -10.349917      -281.6356
  45   2.0000     -10.348855      -281.6067
  46   2.0000     -10.348737      -281.6035
  47   2.0000     -10.346575      -281.5446
  48   2.0000     -10.345687      -281.5205
  49   2.0000     -10.345362      -281.5116
  50   2.0000     -10.344971      -281.5010
  51   2.0000     -10.342524      -281.4344
  52   2.0000     -10.340724      -281.3854
  53   2.0000     -10.340025      -281.3664
  54   2.0000     -10.337837      -281.3068
  55   2.0000     -10.337035      -281.2850
  56   2.0000     -10.335703      -281.2488
  57   2.0000     -10.334194      -281.2077
  58   2.0000     -10.334120      -281.2057
  59   2.0000     -10.333048      -281.1765
  60   2.0000     -10.331531      -281.1353
  61   2.0000     -10.330900      -281.1181
  62   2.0000     -10.330501      -281.1072
  63   2.0000     -10.326381      -280.9951
  64   2.0000     -10.321691      -280.8675
  65   2.0000     -10.321623      -280.8656
  66   2.0000     -10.319400      -280.8052
  67   2.0000     -10.317487      -280.7531
  68   2.0000     -10.315877      -280.7093
  69   2.0000     -10.315508      -280.6992
  70   2.0000     -10.310142      -280.5532
  71   2.0000     -10.309393      -280.5328
  72   2.0000     -10.309242      -280.5287
  73   2.0000     -10.306721      -280.4601
  74   2.0000     -10.306022      -280.4411
  75   2.0000     -10.304744      -280.4063
  76   2.0000     -10.301612      -280.3211
  77   2.0000     -10.295322      -280.1500
  78   2.0000     -10.294559      -280.1292
  79   2.0000     -10.292566      -280.0750
  80   2.0000     -10.290360      -280.0149
  81   2.0000      -8.170387      -222.3275
  82   2.0000      -8.107764      -220.6235
  83   2.0000      -8.107561      -220.6179
  84   2.0000      -8.103240      -220.5004
  85   2.0000      -8.102058      -220.4682
  86   2.0000      -6.131991      -166.8599
  87   2.0000      -6.123959      -166.6414
  88   2.0000      -6.122794      -166.6097
  89   2.0000      -6.067357      -165.1012
  90   2.0000      -6.067223      -165.0975
  91   2.0000      -6.063051      -164.9840
  92   2.0000      -6.062871      -164.9791
  93   2.0000      -6.062595      -164.9716
  94   2.0000      -6.061795      -164.9498
  95   2.0000      -6.060139      -164.9048
  96   2.0000      -6.059943      -164.8994
  97   2.0000      -6.058284      -164.8543
  98   2.0000      -6.057238      -164.8258
  99   2.0000      -6.055624      -164.7819
 100   2.0000      -6.054471      -164.7505
 101   2.0000      -1.361397       -37.0455
 102   2.0000      -1.358570       -36.9686
 103   2.0000      -1.346337       -36.6357
 104   2.0000      -1.343558       -36.5601
 105   2.0000      -1.219337       -33.1799
 106   2.0000      -1.195847       -32.5407
 107   2.0000      -1.176767       -32.0214
 108   2.0000      -1.175847       -31.9964
 109   2.0000      -1.171606       -31.8810
 110   2.0000      -1.061379       -28.8816
 111   2.0000      -1.058540       -28.8043
 112   2.0000      -1.056446       -28.7473
 113   2.0000      -1.054822       -28.7032
 114   2.0000      -1.040575       -28.3155
 115   2.0000      -1.037183       -28.2232
 116   2.0000      -1.035937       -28.1893
 117   2.0000      -1.030516       -28.0418
 118   2.0000      -1.027537       -27.9607
 119   2.0000      -1.026981       -27.9456
 120   2.0000      -1.017837       -27.6967
 121   2.0000      -1.006765       -27.3955
 122   2.0000      -0.994610       -27.0647
 123   2.0000      -0.991070       -26.9684
 124   2.0000      -0.976413       -26.5696
 125   2.0000      -0.969674       -26.3862
 126   2.0000      -0.943591       -25.6764
 127   2.0000      -0.939713       -25.5709
 128   2.0000      -0.937349       -25.5066
 129   2.0000      -0.931127       -25.3372
 130   2.0000      -0.925513       -25.1845
 131   2.0000      -0.920664       -25.0526
 132   2.0000      -0.911296       -24.7976
 133   2.0000      -0.908210       -24.7137
 134   2.0000      -0.903790       -24.5934
 135   2.0000      -0.898254       -24.4427
 136   2.0000      -0.885618       -24.0989
 137   2.0000      -0.883528       -24.0420
 138   2.0000      -0.881738       -23.9933
 139   2.0000      -0.879748       -23.9392
 140   2.0000      -0.877822       -23.8868
 141   2.0000      -0.877535       -23.8789
 142   2.0000      -0.875121       -23.8132
 143   2.0000      -0.871452       -23.7134
 144   2.0000      -0.855797       -23.2874
 145   2.0000      -0.844595       -22.9826
 146   2.0000      -0.828342       -22.5403
 147   2.0000      -0.810809       -22.0632
 148   2.0000      -0.808004       -21.9869
 149   2.0000      -0.807575       -21.9752
 150   2.0000      -0.805808       -21.9271
 151   2.0000      -0.798761       -21.7354
 152   2.0000      -0.794724       -21.6255
 153   2.0000      -0.787910       -21.4401
 154   2.0000      -0.777049       -21.1446
 155   2.0000      -0.759689       -20.6722
 156   2.0000      -0.752310       -20.4714
 157   2.0000      -0.744848       -20.2684
 158   2.0000      -0.742453       -20.2032
 159   2.0000      -0.739498       -20.1228
 160   2.0000      -0.737179       -20.0597
 161   2.0000      -0.736428       -20.0392
 162   2.0000      -0.732591       -19.9348
 163   2.0000      -0.728499       -19.8235
 164   2.0000      -0.720014       -19.5926
 165   2.0000      -0.715360       -19.4659
 166   2.0000      -0.714459       -19.4414
 167   2.0000      -0.702952       -19.1283
 168   2.0000      -0.694932       -18.9101
 169   2.0000      -0.690696       -18.7948
 170   2.0000      -0.686547       -18.6819
 171   2.0000      -0.682663       -18.5762
 172   2.0000      -0.678080       -18.4515
 173   2.0000      -0.674957       -18.3665
 174   2.0000      -0.672313       -18.2946
 175   2.0000      -0.670972       -18.2581
 176   2.0000      -0.667899       -18.1745
 177   2.0000      -0.662767       -18.0348
 178   2.0000      -0.660835       -17.9822
 179   2.0000      -0.653222       -17.7751
 180   2.0000      -0.649203       -17.6657
 181   2.0000      -0.645586       -17.5673
 182   2.0000      -0.639276       -17.3956
 183   2.0000      -0.638039       -17.3619
 184   2.0000      -0.632146       -17.2016
 185   2.0000      -0.629229       -17.1222
 186   2.0000      -0.625383       -17.0175
 187   2.0000      -0.624444       -16.9920
 188   2.0000      -0.621920       -16.9233
 189   2.0000      -0.621570       -16.9138
 190   2.0000      -0.619165       -16.8483
 191   2.0000      -0.611359       -16.6359
 192   2.0000      -0.606258       -16.4971
 193   2.0000      -0.600545       -16.3417
 194   2.0000      -0.598023       -16.2730
 195   2.0000      -0.595641       -16.2082
 196   2.0000      -0.590524       -16.0690
 197   2.0000      -0.587771       -15.9941
 198   2.0000      -0.586377       -15.9561
 199   2.0000      -0.584987       -15.9183
 200   2.0000      -0.584436       -15.9033
 201   2.0000      -0.581896       -15.8342
 202   2.0000      -0.580833       -15.8053
 203   2.0000      -0.580591       -15.7987
 204   2.0000      -0.578238       -15.7347
 205   2.0000      -0.576859       -15.6971
 206   2.0000      -0.574264       -15.6265
 207   2.0000      -0.573912       -15.6169
 208   2.0000      -0.570870       -15.5342
 209   2.0000      -0.569820       -15.5056
 210   2.0000      -0.566086       -15.4040
 211   2.0000      -0.563620       -15.3369
 212   2.0000      -0.558464       -15.1966
 213   2.0000      -0.556727       -15.1493
 214   2.0000      -0.555732       -15.1222
 215   2.0000      -0.551745       -15.0138
 216   2.0000      -0.550262       -14.9734
 217   2.0000      -0.540839       -14.7170
 218   2.0000      -0.540421       -14.7056
 219   2.0000      -0.536911       -14.6101
 220   2.0000      -0.534676       -14.5493
 221   2.0000      -0.531897       -14.4736
 222   2.0000      -0.530235       -14.4284
 223   2.0000      -0.529061       -14.3965
 224   2.0000      -0.527984       -14.3672
 225   2.0000      -0.526056       -14.3147
 226   2.0000      -0.524962       -14.2849
 227   2.0000      -0.523704       -14.2507
 228   2.0000      -0.522006       -14.2045
 229   2.0000      -0.521464       -14.1897
 230   2.0000      -0.517813       -14.0904
 231   2.0000      -0.516871       -14.0648
 232   2.0000      -0.514663       -14.0047
 233   2.0000      -0.514312       -13.9951
 234   2.0000      -0.513230       -13.9657
 235   2.0000      -0.511101       -13.9078
 236   2.0000      -0.508109       -13.8263
 237   2.0000      -0.507557       -13.8113
 238   2.0000      -0.506352       -13.7786
 239   2.0000      -0.503712       -13.7067
 240   2.0000      -0.502431       -13.6718
 241   2.0000      -0.501307       -13.6413
 242   2.0000      -0.494611       -13.4591
 243   2.0000      -0.494001       -13.4424
 244   2.0000      -0.490859       -13.3570
 245   2.0000      -0.488542       -13.2939
 246   2.0000      -0.486375       -13.2349
 247   2.0000      -0.485681       -13.2160
 248   2.0000      -0.484852       -13.1935
 249   2.0000      -0.484202       -13.1758
 250   2.0000      -0.482991       -13.1428
 251   2.0000      -0.481668       -13.1069
 252   2.0000      -0.480926       -13.0867
 253   2.0000      -0.477606       -12.9963
 254   2.0000      -0.476079       -12.9548
 255   2.0000      -0.475839       -12.9482
 256   2.0000      -0.473365       -12.8809
 257   2.0000      -0.469649       -12.7798
 258   2.0000      -0.467151       -12.7118
 259   2.0000      -0.465715       -12.6728
 260   2.0000      -0.463531       -12.6133
 261   2.0000      -0.462863       -12.5951
 262   2.0000      -0.461939       -12.5700
 263   2.0000      -0.461144       -12.5484
 264   2.0000      -0.458163       -12.4673
 265   2.0000      -0.455059       -12.3828
 266   2.0000      -0.452305       -12.3078
 267   2.0000      -0.450076       -12.2472
 268   2.0000      -0.448827       -12.2132
 269   2.0000      -0.446458       -12.1488
 270   2.0000      -0.445275       -12.1166
 271   2.0000      -0.441729       -12.0201
 272   2.0000      -0.439913       -11.9707
 273   2.0000      -0.438965       -11.9448
 274   2.0000      -0.437222       -11.8974
 275   2.0000      -0.436727       -11.8840
 276   2.0000      -0.433423       -11.7941
 277   2.0000      -0.428741       -11.6666
 278   2.0000      -0.427930       -11.6446
 279   2.0000      -0.425917       -11.5898
 280   2.0000      -0.416842       -11.3428
 281   2.0000      -0.412943       -11.2368
 282   2.0000      -0.411706       -11.2031
 283   2.0000      -0.410181       -11.1616
 284   2.0000      -0.395415       -10.7598
 285   2.0000      -0.387551       -10.5458
 286   2.0000      -0.381606       -10.3840
 287   2.0000      -0.376384       -10.2419
 288   2.0000      -0.369749       -10.0614
 289   2.0000      -0.367882       -10.0106
 290   2.0000      -0.366042        -9.9605
 291   2.0000      -0.365035        -9.9331
 292   2.0000      -0.362860        -9.8739
 293   2.0000      -0.361409        -9.8344
 294   2.0000      -0.353642        -9.6231
 295   2.0000      -0.352987        -9.6053
 296   2.0000      -0.345383        -9.3984
 297   2.0000      -0.341022        -9.2797
 298   2.0000      -0.324756        -8.8371
 299   2.0000      -0.287782        -7.8310
 300   2.0000      -0.262707        -7.1486
 301   0.0000      -0.082982        -2.2580
 302   0.0000      -0.065350        -1.7783
 303   0.0000      -0.050169        -1.3652
 304   0.0000      -0.037014        -1.0072
 305   0.0000      -0.032916        -0.8957

MULLIKEN ATOMIC CHARGES
-----------------------
   0 C :    0.228171
   1 O :   -0.203735
   2 C :   -0.056050
   3 C :   -0.092727
   4 C :    0.240126
   5 C :    0.242325
   6 C :   -0.085565
   7 C :    0.021692
   8 C :    0.293808
   9 C :   -0.386348
  10 C :   -0.125212
  11 N :    0.095487
  12 C :   -0.133359
  13 N :    0.105716
  14 C :   -0.152204
  15 F :   -0.181342
  16 C :    0.001053
  17 F :   -0.185271
  18 C :    0.228589
  19 O :   -0.205132
  20 C :   -0.056742
  21 C :   -0.099174
  22 C :    0.241244
  23 C :    0.243833
  24 C :   -0.090422
  25 C :    0.024780
  26 C :    0.295867
  27 C :   -0.388099
  28 C :   -0.124726
  29 N :    0.090555
  30 C :   -0.132329
  31 N :    0.104547
  32 C :   -0.153530
  33 F :   -0.181789
  34 C :    0.001117
  35 F :   -0.186138
  36 C :   -0.091646
  37 S :    0.214427
  38 C :   -0.049246
  39 C :    0.034224
  40 C :   -0.070158
  41 C :   -0.077595
  42 C :    0.029218
  43 C :   -0.175340
  44 S :    0.172101
  45 C :   -0.137832
  46 C :   -0.046396
  47 C :    0.088386
  48 C :    0.122630
  49 C :    0.034387
  50 C :    0.124883
  51 C :    0.016993
  52 C :    0.027533
  53 N :   -0.330402
  54 S :    0.530589
  55 N :   -0.327370
  56 C :   -0.180094
  57 S :    0.178936
  58 C :   -0.088329
  59 C :    0.036889
  60 C :   -0.038859
  61 C :   -0.051205
  62 C :    0.042940
  63 C :   -0.174672
  64 S :    0.217549
  65 C :   -0.089121
  66 C :   -0.065509
  67 O :   -0.375214
  68 O :   -0.389985
  69 C :    0.126185
  70 C :   -0.064502
  71 C :    0.137014
  72 C :   -0.062198
  73 C :    0.012696
  74 C :   -0.014304
  75 C :    0.017617
  76 C :   -0.010139
  77 C :    0.037452
  78 C :   -0.034423
  79 C :    0.021779
  80 C :   -0.007462
  81 H :    0.040010
  82 H :    0.044682
  83 H :    0.026743
  84 H :    0.039659
  85 H :    0.044681
  86 H :    0.023317
  87 H :    0.031600
  88 H :    0.016051
  89 H :    0.028402
  90 H :    0.032718
  91 H :    0.048477
  92 H :    0.060708
  93 H :    0.046569
  94 H :    0.051121
  95 H :    0.044236
  96 H :    0.043641
  97 H :    0.052860
  98 H :    0.053229
  99 H :    0.047954
 100 H :    0.050193
 101 H :    0.033676
 102 H :    0.029777
 103 H :    0.032959
 104 H :    0.041297
 105 H :    0.026468
 106 H :    0.031932
 107 H :    0.029333
 108 H :    0.030767
 109 H :    0.041855
 110 H :    0.029631
 111 H :    0.035491
 112 H :    0.023066
 113 H :    0.049374
 114 H :    0.039828
 115 H :    0.024683
 116 H :    0.026461
 117 H :    0.033147
 118 H :    0.035015
 119 H :    0.040766
 120 H :    0.026180
Sum of atomic charges:   -0.0000000

LOEWDIN ATOMIC CHARGES
----------------------
   0 C :    0.091031
   1 O :   -0.171742
   2 C :   -0.049275
   3 C :   -0.008105
   4 C :    0.073382
   5 C :    0.076281
   6 C :   -0.017860
   7 C :   -0.019151
   8 C :    0.081899
   9 C :   -0.154001
  10 C :   -0.014550
  11 N :   -0.060910
  12 C :   -0.014948
  13 N :   -0.057287
  14 C :   -0.137706
  15 F :   -0.048663
  16 C :    0.064477
  17 F :   -0.050913
  18 C :    0.090497
  19 O :   -0.173100
  20 C :   -0.049049
  21 C :   -0.008973
  22 C :    0.072780
  23 C :    0.075577
  24 C :   -0.018433
  25 C :   -0.018963
  26 C :    0.082317
  27 C :   -0.156465
  28 C :   -0.014460
  29 N :   -0.063083
  30 C :   -0.014973
  31 N :   -0.059612
  32 C :   -0.140953
  33 F :   -0.049546
  34 C :    0.063969
  35 F :   -0.051993
  36 C :   -0.198195
  37 S :    0.502941
  38 C :   -0.157711
  39 C :   -0.051840
  40 C :   -0.006158
  41 C :   -0.221255
  42 C :   -0.019048
  43 C :   -0.037463
  44 S :    0.467974
  45 C :   -0.151386
  46 C :   -0.051834
  47 C :   -0.068806
  48 C :    0.040357
  49 C :    0.026958
  50 C :   -0.061677
  51 C :   -0.039833
  52 C :   -0.034984
  53 N :   -0.281153
  54 S :    0.634602
  55 N :   -0.280713
  56 C :   -0.159779
  57 S :    0.469518
  58 C :   -0.209058
  59 C :   -0.022768
  60 C :   -0.045161
  61 C :   -0.164264
  62 C :   -0.047843
  63 C :   -0.037017
  64 S :    0.505700
  65 C :   -0.195370
  66 C :   -0.007167
  67 O :   -0.109851
  68 O :   -0.132317
  69 C :    0.078628
  70 C :   -0.074313
  71 C :    0.076301
  72 C :   -0.072846
  73 C :   -0.016442
  74 C :   -0.060388
  75 C :   -0.016037
  76 C :   -0.059225
  77 C :   -0.016186
  78 C :   -0.059528
  79 C :   -0.013006
  80 C :   -0.060128
  81 H :    0.054796
  82 H :    0.053802
  83 H :    0.051889
  84 H :    0.054430
  85 H :    0.053598
  86 H :    0.051410
  87 H :    0.038803
  88 H :    0.030561
  89 H :    0.031023
  90 H :    0.040122
  91 H :    0.026550
  92 H :    0.015744
  93 H :    0.027646
  94 H :    0.039119
  95 H :    0.030006
  96 H :    0.015004
  97 H :    0.026724
  98 H :    0.032046
  99 H :    0.037813
 100 H :    0.032179
 101 H :    0.031774
 102 H :    0.023302
 103 H :    0.027146
 104 H :    0.032787
 105 H :    0.022893
 106 H :    0.030994
 107 H :    0.023349
 108 H :    0.025644
 109 H :    0.033285
 110 H :    0.023856
 111 H :    0.031413
 112 H :    0.024923
 113 H :    0.027670
 114 H :    0.031563
 115 H :    0.020738
 116 H :    0.024376
 117 H :    0.030281
 118 H :    0.024247
 119 H :    0.032806
 120 H :    0.023965

  Mayer bond orders larger than 0.100000
B(  0-C ,  1-O ) :   2.1227 B(  0-C ,  2-C ) :   0.9669 B(  0-C , 14-C ) :   0.9942
B(  2-C ,  3-C ) :   1.3464 B(  2-C ,  7-C ) :   1.3456 B(  3-C ,  4-C ) :   1.3256
B(  3-C , 81-H ) :   1.0147 B(  4-C ,  5-C ) :   1.2974 B(  4-C , 17-F ) :   1.0983
B(  5-C ,  6-C ) :   1.3472 B(  5-C , 15-F ) :   1.1124 B(  6-C ,  7-C ) :   1.3409
B(  6-C , 82-H ) :   0.9872 B(  7-C ,  8-C ) :   1.0105 B(  8-C ,  9-C ) :   1.6247
B(  8-C , 14-C ) :   1.1137 B(  9-C , 10-C ) :   1.1368 B(  9-C , 12-C ) :   1.1321
B( 10-C , 11-N ) :   2.9541 B( 12-C , 13-N ) :   2.9720 B( 14-C , 16-C ) :   1.4755
B( 16-C , 65-C ) :   1.3336 B( 16-C , 83-H ) :   0.9394 B( 18-C , 19-O ) :   2.1243
B( 18-C , 20-C ) :   0.9652 B( 18-C , 32-C ) :   0.9953 B( 20-C , 21-C ) :   1.3478
B( 20-C , 25-C ) :   1.3453 B( 21-C , 22-C ) :   1.3249 B( 21-C , 84-H ) :   1.0152
B( 22-C , 23-C ) :   1.2979 B( 22-C , 35-F ) :   1.0977 B( 23-C , 24-C ) :   1.3451
B( 23-C , 33-F ) :   1.1121 B( 24-C , 25-C ) :   1.3391 B( 24-C , 85-H ) :   0.9883
B( 25-C , 26-C ) :   1.0098 B( 26-C , 27-C ) :   1.6189 B( 26-C , 32-C ) :   1.1202
B( 27-C , 28-C ) :   1.1355 B( 27-C , 30-C ) :   1.1330 B( 28-C , 29-N ) :   2.9532
B( 30-C , 31-N ) :   2.9719 B( 32-C , 34-C ) :   1.4608 B( 34-C , 36-C ) :   1.3439
B( 34-C , 86-H ) :   0.9402 B( 36-C , 37-S ) :   1.0579 B( 36-C , 40-C ) :   1.2972
B( 37-S , 38-C ) :   1.1129 B( 38-C , 39-C ) :   1.4206 B( 38-C , 41-C ) :   1.2355
B( 39-C , 40-C ) :   1.4149 B( 39-C , 43-C ) :   0.9221 B( 40-C , 87-H ) :   1.0109
B( 41-C , 42-C ) :   1.4977 B( 41-C , 44-S ) :   1.0415 B( 42-C , 43-C ) :   0.9506
B( 42-C , 46-C ) :   1.3212 B( 43-C , 77-C ) :   0.9942 B( 43-C , 79-C ) :   1.0108
B( 44-S , 45-C ) :   1.1189 B( 45-C , 46-C ) :   1.4581 B( 45-C , 47-C ) :   1.1563
B( 46-C , 88-H ) :   0.9905 B( 47-C , 48-C ) :   1.4253 B( 47-C , 50-C ) :   0.1087
B( 47-C , 52-C ) :   1.1916 B( 48-C , 49-C ) :   1.1823 B( 48-C , 67-O ) :   1.1291
B( 49-C , 50-C ) :   1.4389 B( 49-C , 68-O ) :   1.0976 B( 50-C , 51-C ) :   1.1752
B( 50-C , 56-C ) :   1.1173 B( 51-C , 52-C ) :   1.1385 B( 51-C , 53-N ) :   1.5246
B( 52-C , 55-N ) :   1.5261 B( 53-N , 54-S ) :   1.2603 B( 53-N , 55-N ) :   0.1443
B( 54-S , 55-N ) :   1.2580 B( 56-C , 57-S ) :   1.1195 B( 56-C , 60-C ) :   1.4719
B( 57-S , 58-C ) :   1.0572 B( 58-C , 59-C ) :   1.5045 B( 58-C , 61-C ) :   1.2332
B( 59-C , 60-C ) :   1.3116 B( 59-C , 63-C ) :   0.9416 B( 60-C , 89-H ) :   0.9888
B( 61-C , 62-C ) :   1.4256 B( 61-C , 64-S ) :   1.1106 B( 62-C , 63-C ) :   0.9270
B( 62-C , 66-C ) :   1.4159 B( 63-C , 73-C ) :   1.0072 B( 63-C , 75-C ) :   1.0019
B( 64-S , 65-C ) :   1.0626 B( 65-C , 66-C ) :   1.3041 B( 66-C , 90-H ) :   1.0092
B( 67-O , 69-C ) :   0.8722 B( 68-O , 71-C ) :   0.8699 B( 69-C , 70-C ) :   1.0996
B( 69-C , 91-H ) :   0.9607 B( 69-C , 92-H ) :   0.9482 B( 70-C , 93-H ) :   0.9678
B( 70-C , 94-H ) :   0.9652 B( 70-C , 95-H ) :   0.9631 B( 71-C , 72-C ) :   1.1056
B( 71-C , 96-H ) :   0.9504 B( 71-C , 97-H ) :   0.9614 B( 72-C , 98-H ) :   0.9635
B( 72-C , 99-H ) :   0.9634 B( 72-C ,100-H ) :   0.9673 B( 73-C , 74-C ) :   1.0990
B( 73-C ,101-H ) :   0.9456 B( 73-C ,102-H ) :   0.9468 B( 74-C ,103-H ) :   0.9664
B( 74-C ,104-H ) :   0.9668 B( 74-C ,105-H ) :   0.9649 B( 75-C , 76-C ) :   1.0974
B( 75-C ,106-H ) :   0.9450 B( 75-C ,107-H ) :   0.9472 B( 76-C ,108-H ) :   0.9670
B( 76-C ,109-H ) :   0.9672 B( 76-C ,110-H ) :   0.9651 B( 77-C , 78-C ) :   1.1146
B( 77-C ,111-H ) :   0.9462 B( 77-C ,112-H ) :   0.9449 B( 78-C ,113-H ) :   0.9600
B( 78-C ,114-H ) :   0.9668 B( 78-C ,115-H ) :   0.9677 B( 79-C , 80-C ) :   1.1029
B( 79-C ,116-H ) :   0.9445 B( 79-C ,117-H ) :   0.9484 B( 80-C ,118-H ) :   0.9613
B( 80-C ,119-H ) :   0.9655 B( 80-C ,120-H ) :   0.9680

-----------------------------------------------------------------------------
         ABSORPTION SPECTRUM VIA TRANSITION ELECTRIC DIPOLE MOMENTS
-----------------------------------------------------------------------------
State   Energy  Wavelength   fosc         T2         TX        TY        TZ
        (cm-1)    (nm)                  (au**2)     (au)      (au)      (au)
-----------------------------------------------------------------------------
   0   16426.6    608.8   3.335597953  66.84993   2.68283   7.07245   3.10367
   1   22888.8    436.9   0.451335782   6.49161  -2.24392   0.27873   1.17420
   2   26224.2    381.3   0.282323418   3.54422  -0.63388  -1.67304  -0.58595
   3   27989.2    357.3   0.090624883   1.06594  -0.66960   0.70576   0.34566
   4   28353.5    352.7   0.127537747   1.48084  -0.53566  -1.05861  -0.27067
   5   29686.2    336.9   0.046566690   0.51641  -0.69862   0.11074   0.12681
   6   32627.6    306.5   0.009776916   0.09865  -0.08263   0.24889   0.17285
   7   35003.4    285.7   0.392976632   3.69600   1.77932  -0.72627  -0.05057
   8   36046.7    277.4   0.041237674   0.37662  -0.12268   0.39754   0.45114
   9   36312.1    275.4   0.061036119   0.55336   0.65215  -0.04124   0.35548
  10   36974.8    270.5   0.035832573   0.31904   0.52472  -0.00214   0.20905
  11   37231.0    268.6   0.011827361   0.10458   0.13183  -0.04583  -0.29173
  12   37337.8    267.8   0.174172038   1.53570   1.18767  -0.34161   0.09185
  13   37807.7    264.5   0.051940010   0.45227  -0.64943  -0.15046  -0.08874
  14   37896.9    263.9   0.110758634   0.96217   0.01998   0.65485   0.73003
  15   38375.5    260.6   0.084608485   0.72583   0.11847  -0.64151  -0.54796
  16   38971.9    256.6   0.534166504   4.51233  -1.94621   0.85118  -0.00853
  17   39489.4    253.2   0.080239595   0.66894  -0.61886  -0.28188  -0.45442
  18   39718.7    251.8   0.014981323   0.12417   0.02500  -0.03014  -0.35020

Dispersion correction           -0.077943114
FINAL SINGLE POINT ENERGY     -5402.184292146741

DIPOLE MOMENT
-------------
                                X             Y             Z
Electronic contribution:    -91.40293      22.31487      22.40449
Nuclear contribution   :     92.71514     -22.88950     -24.14694
                        -----------------------------------------
Total Dipole Moment    :      1.31221      -0.57464      -1.74245
                        -----------------------------------------
Magnitude (a.u.)       :      2.25571
Magnitude (Debye)      :      5.73357

Rotational constants in cm-1:     0.001285     0.000178     0.000160
Rotational constants in MHz :    38.532602     5.324329     4.786306

                             ****ORCA TERMINATED NORMALLY****
TOTAL RUN TIME: 0 days 0 hours 14 minutes 41 seconds 282 msec
