                         Program Version 4.2.0 -  RELEASE  -
|  1> # ORCA input file
|  2> # SCF done       -227.972571469880          0.000986440345
|  3> ! wb97x-d3 def2-SVP def2/J RIJCOSX Grid4 TightSCF
|  4> %maxcore 5000
|  5> %tddft
|  6>     Mode sTDDFT
|  7>     Ethresh 5.0
|  8>     maxcore 5000
|  9> end
| 10>
| 11> %pal
| 12>   nprocs 6
| 13>   end
| 14> * xyz 0 1
| 15>    C       -4.00568         4.32869        -7.83736
| 16>    O       -4.31644         4.16421        -6.67137
| 17>    C       -4.48881         3.53565        -8.98791
| 18>    C       -5.37475         2.47729        -8.98966
| 19>    C       -5.67626         1.89467       -10.21041
| 20>    C       -5.09778         2.37074       -11.38672
| 21>    C       -4.20642         3.43402       -11.38338
| 22>    C       -3.89963         4.02230       -10.16681
| 23>    C       -3.01306         5.13717        -9.82499
| 24>    C       -2.24672         5.83512       -10.72301
| 25>    C       -1.36491         6.89108       -10.41133
| 26>    N       -0.62332         7.75289       -10.24578
| 27>    C       -2.22729         5.58251       -12.11127
| 28>    N       -2.17087         5.43667       -13.24847
| 29>    C       -3.09822         5.33246        -8.39337
| 30>    C       -2.45499         6.31665        -7.67720
| 31>    C       -3.30724         2.89654        12.67264
| 32>    O       -3.23093         3.89204        11.97581
| 33>    C       -3.07613         2.83864        14.13213
| 34>    C       -2.71794         3.86306        14.98476
| 35>    C       -2.54811         3.55276        16.32463
| 36>    C       -2.73651         2.24849        16.78052
| 37>    C       -3.09877         1.22011        15.92230
| 38>    C       -3.27034         1.52191        14.58075
| 39>    C       -3.63822         0.68437        13.43615
| 40>    C       -3.92485        -0.65539        13.50530
| 41>    C       -4.29043        -1.47967        12.42081
| 42>    N       -4.59104        -2.22142        11.59622
| 43>    C       -3.89716        -1.40950        14.69752
| 44>    N       -3.88978        -2.08170        15.62807
| 45>    C       -3.63996         1.53190        12.26329
| 46>    C       -3.88406         1.11647        10.97262
| 47>    C       -3.87572         1.82548         9.77055
| 48>    S       -3.57821         3.54771         9.56235
| 49>    C       -3.74274         3.36552         7.87373
| 50>    C       -4.00362         2.04075         7.46542
| 51>    C       -4.09733         1.18627         8.53476
| 52>    C       -3.69000         4.19241         6.73273
| 53>    C       -3.91467         3.40663         5.59552
| 54>    C       -4.11895         1.95405         5.96091
| 55>    S       -3.45014         5.85368         6.37726
| 56>    C       -3.59979         5.50140         4.66953
| 57>    C       -3.85009         4.14640         4.43374
| 58>    C       -3.42676         6.44709         3.62847
| 59>    C       -2.84115         7.49762        -0.07744
| 60>    S       -3.53674         6.27640        -1.13090
| 61>    C       -2.77794         7.00254        -2.48599
| 62>    C       -2.01280         8.11680        -2.13152
| 63>    C       -2.04644         8.39262        -0.77314
| 64>    C       -2.70258         6.80408        -3.88109
| 65>    C       -1.87257         7.80641        -4.42231
| 66>    C       -1.36062         8.72927        -3.34398
| 67>    S       -3.32437         5.72494        -5.05038
| 68>    C       -2.46421         6.60415        -6.31119
| 69>    C       -1.73997         7.68900        -5.78208
| 70>    C        0.17585         8.69104        -3.24503
| 71>    C        0.72651         7.28734        -3.02520
| 72>    C       -1.83149        10.17941        -3.56382
| 73>    C       -3.34834        10.31438        -3.61100
| 74>    C       -5.49785         1.43803         5.51910
| 75>    C       -6.64051         2.31256         6.02191
| 76>    C       -2.97099         1.13472         5.33194
| 77>    C       -2.92479        -0.33239         5.73648
| 78>    F       -2.56309         1.97594        18.07922
| 79>    F       -2.19781         4.51387        17.18886
| 80>    F       -6.53129         0.86576       -10.26086
| 81>    F       -5.40762         1.79054       -12.55177
| 82>    S       -3.32544         5.82503         2.00004
| 83>    C       -3.08098         7.41005         1.32422
| 84>    C       -3.13497         8.38302         2.31105
| 85>    C       -3.31121         7.83501         3.61727
| 86>    C       -3.14605         9.83038         2.05111
| 87>    C       -3.35157        10.64867         3.24563
| 88>    C       -3.44995        10.09268         4.56117
| 89>    C       -3.37435         8.66059         4.81325
| 90>    C       -3.48648        12.01538         3.23584
| 91>    S       -3.73049        12.62313         4.83793
| 92>    C       -3.65687        11.04203         5.53268
| 93>    C       -3.40192        12.95934         2.09203
| 94>    C       -1.94582        13.35311         1.82556
| 95>    C       -3.77765        10.86550         7.00221
| 96>    C       -2.39448        10.76271         7.65245
| 97>    O       -3.36973         8.19099         5.94785
| 98>    O       -3.02990        10.31260         0.93494
| 99>    H       -5.81959         2.11304        -8.07745
|100>    H       -3.78822         3.76246       -12.32047
|101>    H       -1.83696         6.99980        -8.24707
|102>    H       -2.57220         4.86949        14.62622
|103>    H       -3.23135         0.23041        16.32698
|104>    H       -4.10330         0.06380        10.84108
|105>    H       -4.31970         0.13510         8.48407
|106>    H       -3.98117         3.75411         3.44028
|107>    H       -1.52316         9.19874        -0.29697
|108>    H       -1.15481         8.33594        -6.41153
|109>    H        0.59032         9.10390        -4.16650
|110>    H        0.48238         9.33486        -2.41859
|111>    H        0.44937         6.62977        -3.84585
|112>    H        1.81146         7.31990        -2.96444
|113>    H        0.34406         6.86254        -2.09985
|114>    H       -1.44296        10.79397        -2.75008
|115>    H       -1.40130        10.54127        -4.49967
|116>    H       -3.78814        10.02586        -2.65945
|117>    H       -3.62123        11.34699        -3.81342
|118>    H       -3.77046         9.68834        -4.39412
|119>    H       -5.52081         1.39975         4.42824
|120>    H       -5.63256         0.42537         5.89981
|121>    H       -6.55297         3.32557         5.63602
|122>    H       -7.59322         1.90241         5.69604
|123>    H       -6.64086         2.35824         7.10859
|124>    H       -3.06811         1.20776         4.24664
|125>    H       -2.02711         1.60866         5.61280
|126>    H       -3.83704        -0.85096         5.45557
|127>    H       -2.09278        -0.81842         5.23213
|128>    H       -2.77593        -0.43493         6.80745
|129>    H       -3.80347        12.47254         1.20166
|130>    H       -3.98791        13.85364         2.31242
|131>    H       -1.36708        12.47225         1.56043
|132>    H       -1.89892        14.06039         1.00231
|133>    H       -1.50561        13.81259         2.70810
|134>    H       -4.32236        11.71067         7.42729
|135>    H       -4.32495         9.94282         7.20540
|136>    H       -1.80012        11.64687         7.43180
|137>    H       -2.50086        10.67118         8.72950
|138>    H       -1.87664         9.88300         7.28037
|139> *
|140>
|141>                          ****END OF INPUT****

CARTESIAN COORDINATES (ANGSTROEM)
---------------------------------
  C     -4.005680    4.328690   -7.837360
  O     -4.316440    4.164210   -6.671370
  C     -4.488810    3.535650   -8.987910
  C     -5.374750    2.477290   -8.989660
  C     -5.676260    1.894670  -10.210410
  C     -5.097780    2.370740  -11.386720
  C     -4.206420    3.434020  -11.383380
  C     -3.899630    4.022300  -10.166810
  C     -3.013060    5.137170   -9.824990
  C     -2.246720    5.835120  -10.723010
  C     -1.364910    6.891080  -10.411330
  N     -0.623320    7.752890  -10.245780
  C     -2.227290    5.582510  -12.111270
  N     -2.170870    5.436670  -13.248470
  C     -3.098220    5.332460   -8.393370
  C     -2.454990    6.316650   -7.677200
  C     -3.307240    2.896540   12.672640
  O     -3.230930    3.892040   11.975810
  C     -3.076130    2.838640   14.132130
  C     -2.717940    3.863060   14.984760
  C     -2.548110    3.552760   16.324630
  C     -2.736510    2.248490   16.780520
  C     -3.098770    1.220110   15.922300
  C     -3.270340    1.521910   14.580750
  C     -3.638220    0.684370   13.436150
  C     -3.924850   -0.655390   13.505300
  C     -4.290430   -1.479670   12.420810
  N     -4.591040   -2.221420   11.596220
  C     -3.897160   -1.409500   14.697520
  N     -3.889780   -2.081700   15.628070
  C     -3.639960    1.531900   12.263290
  C     -3.884060    1.116470   10.972620
  C     -3.875720    1.825480    9.770550
  S     -3.578210    3.547710    9.562350
  C     -3.742740    3.365520    7.873730
  C     -4.003620    2.040750    7.465420
  C     -4.097330    1.186270    8.534760
  C     -3.690000    4.192410    6.732730
  C     -3.914670    3.406630    5.595520
  C     -4.118950    1.954050    5.960910
  S     -3.450140    5.853680    6.377260
  C     -3.599790    5.501400    4.669530
  C     -3.850090    4.146400    4.433740
  C     -3.426760    6.447090    3.628470
  C     -2.841150    7.497620   -0.077440
  S     -3.536740    6.276400   -1.130900
  C     -2.777940    7.002540   -2.485990
  C     -2.012800    8.116800   -2.131520
  C     -2.046440    8.392620   -0.773140
  C     -2.702580    6.804080   -3.881090
  C     -1.872570    7.806410   -4.422310
  C     -1.360620    8.729270   -3.343980
  S     -3.324370    5.724940   -5.050380
  C     -2.464210    6.604150   -6.311190
  C     -1.739970    7.689000   -5.782080
  C      0.175850    8.691040   -3.245030
  C      0.726510    7.287340   -3.025200
  C     -1.831490   10.179410   -3.563820
  C     -3.348340   10.314380   -3.611000
  C     -5.497850    1.438030    5.519100
  C     -6.640510    2.312560    6.021910
  C     -2.970990    1.134720    5.331940
  C     -2.924790   -0.332390    5.736480
  F     -2.563090    1.975940   18.079220
  F     -2.197810    4.513870   17.188860
  F     -6.531290    0.865760  -10.260860
  F     -5.407620    1.790540  -12.551770
  S     -3.325440    5.825030    2.000040
  C     -3.080980    7.410050    1.324220
  C     -3.134970    8.383020    2.311050
  C     -3.311210    7.835010    3.617270
  C     -3.146050    9.830380    2.051110
  C     -3.351570   10.648670    3.245630
  C     -3.449950   10.092680    4.561170
  C     -3.374350    8.660590    4.813250
  C     -3.486480   12.015380    3.235840
  S     -3.730490   12.623130    4.837930
  C     -3.656870   11.042030    5.532680
  C     -3.401920   12.959340    2.092030
  C     -1.945820   13.353110    1.825560
  C     -3.777650   10.865500    7.002210
  C     -2.394480   10.762710    7.652450
  O     -3.369730    8.190990    5.947850
  O     -3.029900   10.312600    0.934940
  H     -5.819590    2.113040   -8.077450
  H     -3.788220    3.762460  -12.320470
  H     -1.836960    6.999800   -8.247070
  H     -2.572200    4.869490   14.626220
  H     -3.231350    0.230410   16.326980
  H     -4.103300    0.063800   10.841080
  H     -4.319700    0.135100    8.484070
  H     -3.981170    3.754110    3.440280
  H     -1.523160    9.198740   -0.296970
  H     -1.154810    8.335940   -6.411530
  H      0.590320    9.103900   -4.166500
  H      0.482380    9.334860   -2.418590
  H      0.449370    6.629770   -3.845850
  H      1.811460    7.319900   -2.964440
  H      0.344060    6.862540   -2.099850
  H     -1.442960   10.793970   -2.750080
  H     -1.401300   10.541270   -4.499670
  H     -3.788140   10.025860   -2.659450
  H     -3.621230   11.346990   -3.813420
  H     -3.770460    9.688340   -4.394120
  H     -5.520810    1.399750    4.428240
  H     -5.632560    0.425370    5.899810
  H     -6.552970    3.325570    5.636020
  H     -7.593220    1.902410    5.696040
  H     -6.640860    2.358240    7.108590
  H     -3.068110    1.207760    4.246640
  H     -2.027110    1.608660    5.612800
  H     -3.837040   -0.850960    5.455570
  H     -2.092780   -0.818420    5.232130
  H     -2.775930   -0.434930    6.807450
  H     -3.803470   12.472540    1.201660
  H     -3.987910   13.853640    2.312420
  H     -1.367080   12.472250    1.560430
  H     -1.898920   14.060390    1.002310
  H     -1.505610   13.812590    2.708100
  H     -4.322360   11.710670    7.427290
  H     -4.324950    9.942820    7.205400
  H     -1.800120   11.646870    7.431800
  H     -2.500860   10.671180    8.729500
  H     -1.876640    9.883000    7.280370

 Total Charge           Charge          ....    0
 Multiplicity           Mult            ....    1
 Number of Electrons    NEL             ....  628
 Basis Dimension        Dim             .... 1400

ORBITAL ENERGIES
----------------

  NO   OCC          E(Eh)            E(eV)
   0   2.0000     -89.009729     -2422.0778
   1   2.0000     -89.004075     -2421.9240
   2   2.0000     -88.999850     -2421.8090
   3   2.0000     -88.998191     -2421.7639
   4   2.0000     -88.996478     -2421.7173
   5   2.0000     -88.995356     -2421.6868
   6   2.0000     -24.833673      -675.7586
   7   2.0000     -24.832008      -675.7133
   8   2.0000     -24.831805      -675.7078
   9   2.0000     -24.829736      -675.6515
  10   2.0000     -19.260660      -524.1092
  11   2.0000     -19.257237      -524.0161
  12   2.0000     -19.256267      -523.9897
  13   2.0000     -19.249703      -523.8110
  14   2.0000     -14.454194      -393.3186
  15   2.0000     -14.451678      -393.2502
  16   2.0000     -14.449604      -393.1937
  17   2.0000     -14.447018      -393.1233
  18   2.0000     -10.419420      -283.5268
  19   2.0000     -10.418823      -283.5106
  20   2.0000     -10.417164      -283.4654
  21   2.0000     -10.416537      -283.4484
  22   2.0000     -10.409788      -283.2647
  23   2.0000     -10.409010      -283.2436
  24   2.0000     -10.407710      -283.2082
  25   2.0000     -10.404504      -283.1209
  26   2.0000     -10.381833      -282.5040
  27   2.0000     -10.379832      -282.4496
  28   2.0000     -10.379214      -282.4328
  29   2.0000     -10.377519      -282.3866
  30   2.0000     -10.377439      -282.3845
  31   2.0000     -10.374416      -282.3022
  32   2.0000     -10.362628      -281.9814
  33   2.0000     -10.361331      -281.9461
  34   2.0000     -10.360915      -281.9348
  35   2.0000     -10.358187      -281.8606
  36   2.0000     -10.357645      -281.8459
  37   2.0000     -10.357268      -281.8356
  38   2.0000     -10.356762      -281.8218
  39   2.0000     -10.355569      -281.7894
  40   2.0000     -10.353858      -281.7428
  41   2.0000     -10.353130      -281.7230
  42   2.0000     -10.353112      -281.7225
  43   2.0000     -10.352208      -281.6979
  44   2.0000     -10.351130      -281.6686
  45   2.0000     -10.350960      -281.6639
  46   2.0000     -10.349853      -281.6338
  47   2.0000     -10.348694      -281.6023
  48   2.0000     -10.348350      -281.5929
  49   2.0000     -10.342722      -281.4398
  50   2.0000     -10.341991      -281.4199
  51   2.0000     -10.340250      -281.3725
  52   2.0000     -10.339643      -281.3560
  53   2.0000     -10.337598      -281.3004
  54   2.0000     -10.337280      -281.2917
  55   2.0000     -10.337180      -281.2890
  56   2.0000     -10.336408      -281.2680
  57   2.0000     -10.336226      -281.2630
  58   2.0000     -10.335250      -281.2365
  59   2.0000     -10.334652      -281.2202
  60   2.0000     -10.333687      -281.1939
  61   2.0000     -10.333528      -281.1896
  62   2.0000     -10.329836      -281.0891
  63   2.0000     -10.326530      -280.9992
  64   2.0000     -10.326516      -280.9988
  65   2.0000     -10.325705      -280.9767
  66   2.0000     -10.325115      -280.9607
  67   2.0000     -10.321735      -280.8687
  68   2.0000     -10.321699      -280.8677
  69   2.0000     -10.321426      -280.8603
  70   2.0000     -10.321161      -280.8531
  71   2.0000     -10.319211      -280.8000
  72   2.0000     -10.314321      -280.6669
  73   2.0000     -10.313917      -280.6560
  74   2.0000     -10.310630      -280.5665
  75   2.0000     -10.309645      -280.5397
  76   2.0000     -10.308898      -280.5194
  77   2.0000     -10.308834      -280.5176
  78   2.0000     -10.297339      -280.2048
  79   2.0000     -10.293736      -280.1068
  80   2.0000     -10.292857      -280.0829
  81   2.0000     -10.290250      -280.0119
  82   2.0000     -10.288678      -279.9692
  83   2.0000     -10.287243      -279.9301
  84   2.0000      -8.123950      -221.0639
  85   2.0000      -8.117590      -220.8908
  86   2.0000      -8.113049      -220.7673
  87   2.0000      -8.111323      -220.7203
  88   2.0000      -8.107336      -220.6118
  89   2.0000      -8.106950      -220.6013
  90   2.0000      -6.083475      -165.5398
  91   2.0000      -6.079169      -165.4226
  92   2.0000      -6.077126      -165.3670
  93   2.0000      -6.076155      -165.3406
  94   2.0000      -6.072963      -165.2537
  95   2.0000      -6.072229      -165.2338
  96   2.0000      -6.070991      -165.2001
  97   2.0000      -6.069846      -165.1689
  98   2.0000      -6.067954      -165.1174
  99   2.0000      -6.067093      -165.0940
 100   2.0000      -6.066567      -165.0797
 101   2.0000      -6.066338      -165.0734
 102   2.0000      -6.065929      -165.0623
 103   2.0000      -6.063730      -165.0025
 104   2.0000      -6.062435      -164.9672
 105   2.0000      -6.061945      -164.9539
 106   2.0000      -6.059657      -164.8916
 107   2.0000      -6.059415      -164.8851
 108   2.0000      -1.363243       -37.0957
 109   2.0000      -1.361040       -37.0358
 110   2.0000      -1.348167       -36.6855
 111   2.0000      -1.345953       -36.6252
 112   2.0000      -1.178668       -32.0732
 113   2.0000      -1.176852       -32.0238
 114   2.0000      -1.175505       -31.9871
 115   2.0000      -1.170236       -31.8437
 116   2.0000      -1.068167       -29.0663
 117   2.0000      -1.062295       -28.9065
 118   2.0000      -1.061046       -28.8725
 119   2.0000      -1.058438       -28.8016
 120   2.0000      -1.053065       -28.6553
 121   2.0000      -1.042840       -28.3771
 122   2.0000      -1.041349       -28.3366
 123   2.0000      -1.040287       -28.3077
 124   2.0000      -1.032862       -28.1056
 125   2.0000      -1.030311       -28.0362
 126   2.0000      -1.027486       -27.9593
 127   2.0000      -1.019287       -27.7362
 128   2.0000      -0.997607       -27.1463
 129   2.0000      -0.994735       -27.0681
 130   2.0000      -0.981278       -26.7019
 131   2.0000      -0.975600       -26.5474
 132   2.0000      -0.947812       -25.7913
 133   2.0000      -0.945790       -25.7363
 134   2.0000      -0.943037       -25.6613
 135   2.0000      -0.940239       -25.5852
 136   2.0000      -0.938262       -25.5314
 137   2.0000      -0.932960       -25.3871
 138   2.0000      -0.924777       -25.1645
 139   2.0000      -0.913295       -24.8520
 140   2.0000      -0.910837       -24.7851
 141   2.0000      -0.904356       -24.6088
 142   2.0000      -0.897324       -24.4174
 143   2.0000      -0.889499       -24.2045
 144   2.0000      -0.887694       -24.1554
 145   2.0000      -0.885229       -24.0883
 146   2.0000      -0.883620       -24.0445
 147   2.0000      -0.883097       -24.0303
 148   2.0000      -0.881619       -23.9901
 149   2.0000      -0.880377       -23.9563
 150   2.0000      -0.873162       -23.7600
 151   2.0000      -0.855548       -23.2807
 152   2.0000      -0.853201       -23.2168
 153   2.0000      -0.844345       -22.9758
 154   2.0000      -0.819819       -22.3084
 155   2.0000      -0.813316       -22.1315
 156   2.0000      -0.812200       -22.1011
 157   2.0000      -0.809833       -22.0367
 158   2.0000      -0.805205       -21.9107
 159   2.0000      -0.805118       -21.9084
 160   2.0000      -0.788249       -21.4493
 161   2.0000      -0.780633       -21.2421
 162   2.0000      -0.771533       -20.9945
 163   2.0000      -0.763129       -20.7658
 164   2.0000      -0.761265       -20.7151
 165   2.0000      -0.747615       -20.3436
 166   2.0000      -0.746090       -20.3021
 167   2.0000      -0.744212       -20.2510
 168   2.0000      -0.739585       -20.1251
 169   2.0000      -0.737429       -20.0665
 170   2.0000      -0.736464       -20.0402
 171   2.0000      -0.725427       -19.7399
 172   2.0000      -0.722611       -19.6633
 173   2.0000      -0.721148       -19.6234
 174   2.0000      -0.715999       -19.4833
 175   2.0000      -0.703345       -19.1390
 176   2.0000      -0.696749       -18.9595
 177   2.0000      -0.695275       -18.9194
 178   2.0000      -0.686674       -18.6854
 179   2.0000      -0.681284       -18.5387
 180   2.0000      -0.680201       -18.5092
 181   2.0000      -0.678212       -18.4551
 182   2.0000      -0.676193       -18.4001
 183   2.0000      -0.673422       -18.3247
 184   2.0000      -0.672043       -18.2872
 185   2.0000      -0.666836       -18.1455
 186   2.0000      -0.659813       -17.9544
 187   2.0000      -0.656142       -17.8545
 188   2.0000      -0.651963       -17.7408
 189   2.0000      -0.649608       -17.6767
 190   2.0000      -0.647354       -17.6154
 191   2.0000      -0.641299       -17.4506
 192   2.0000      -0.634359       -17.2618
 193   2.0000      -0.629995       -17.1430
 194   2.0000      -0.629680       -17.1345
 195   2.0000      -0.626083       -17.0366
 196   2.0000      -0.623775       -16.9738
 197   2.0000      -0.621612       -16.9149
 198   2.0000      -0.619885       -16.8679
 199   2.0000      -0.606627       -16.5072
 200   2.0000      -0.602221       -16.3873
 201   2.0000      -0.598977       -16.2990
 202   2.0000      -0.595944       -16.2165
 203   2.0000      -0.589352       -16.0371
 204   2.0000      -0.588065       -16.0021
 205   2.0000      -0.586747       -15.9662
 206   2.0000      -0.585339       -15.9279
 207   2.0000      -0.584587       -15.9074
 208   2.0000      -0.582624       -15.8540
 209   2.0000      -0.580629       -15.7997
 210   2.0000      -0.580598       -15.7989
 211   2.0000      -0.578435       -15.7400
 212   2.0000      -0.578158       -15.7325
 213   2.0000      -0.577330       -15.7100
 214   2.0000      -0.574786       -15.6407
 215   2.0000      -0.573753       -15.6126
 216   2.0000      -0.571833       -15.5604
 217   2.0000      -0.568847       -15.4791
 218   2.0000      -0.566368       -15.4116
 219   2.0000      -0.565082       -15.3767
 220   2.0000      -0.563682       -15.3386
 221   2.0000      -0.563283       -15.3277
 222   2.0000      -0.561941       -15.2912
 223   2.0000      -0.558822       -15.2063
 224   2.0000      -0.557172       -15.1614
 225   2.0000      -0.553339       -15.0571
 226   2.0000      -0.546944       -14.8831
 227   2.0000      -0.545103       -14.8330
 228   2.0000      -0.542722       -14.7682
 229   2.0000      -0.539574       -14.6825
 230   2.0000      -0.536166       -14.5898
 231   2.0000      -0.535692       -14.5769
 232   2.0000      -0.534047       -14.5321
 233   2.0000      -0.532545       -14.4913
 234   2.0000      -0.530043       -14.4232
 235   2.0000      -0.529411       -14.4060
 236   2.0000      -0.527517       -14.3545
 237   2.0000      -0.526079       -14.3153
 238   2.0000      -0.523907       -14.2562
 239   2.0000      -0.522793       -14.2259
 240   2.0000      -0.521051       -14.1785
 241   2.0000      -0.520208       -14.1556
 242   2.0000      -0.517058       -14.0699
 243   2.0000      -0.514699       -14.0057
 244   2.0000      -0.513364       -13.9693
 245   2.0000      -0.509634       -13.8678
 246   2.0000      -0.508657       -13.8413
 247   2.0000      -0.507352       -13.8057
 248   2.0000      -0.505858       -13.7651
 249   2.0000      -0.502246       -13.6668
 250   2.0000      -0.500121       -13.6090
 251   2.0000      -0.494764       -13.4632
 252   2.0000      -0.493717       -13.4347
 253   2.0000      -0.493277       -13.4228
 254   2.0000      -0.490944       -13.3593
 255   2.0000      -0.490138       -13.3373
 256   2.0000      -0.489408       -13.3175
 257   2.0000      -0.487165       -13.2564
 258   2.0000      -0.486659       -13.2427
 259   2.0000      -0.486310       -13.2332
 260   2.0000      -0.486241       -13.2313
 261   2.0000      -0.483898       -13.1675
 262   2.0000      -0.481042       -13.0898
 263   2.0000      -0.478552       -13.0221
 264   2.0000      -0.476584       -12.9685
 265   2.0000      -0.475647       -12.9430
 266   2.0000      -0.472872       -12.8675
 267   2.0000      -0.471963       -12.8428
 268   2.0000      -0.469742       -12.7823
 269   2.0000      -0.467260       -12.7148
 270   2.0000      -0.466999       -12.7077
 271   2.0000      -0.466540       -12.6952
 272   2.0000      -0.463852       -12.6220
 273   2.0000      -0.463290       -12.6068
 274   2.0000      -0.461374       -12.5546
 275   2.0000      -0.459876       -12.5139
 276   2.0000      -0.457971       -12.4620
 277   2.0000      -0.456521       -12.4226
 278   2.0000      -0.454922       -12.3790
 279   2.0000      -0.453584       -12.3427
 280   2.0000      -0.451613       -12.2890
 281   2.0000      -0.450138       -12.2489
 282   2.0000      -0.449003       -12.2180
 283   2.0000      -0.448511       -12.2046
 284   2.0000      -0.443735       -12.0747
 285   2.0000      -0.440872       -11.9967
 286   2.0000      -0.439115       -11.9489
 287   2.0000      -0.437544       -11.9062
 288   2.0000      -0.436676       -11.8826
 289   2.0000      -0.432560       -11.7705
 290   2.0000      -0.432388       -11.7659
 291   2.0000      -0.428279       -11.6541
 292   2.0000      -0.426441       -11.6041
 293   2.0000      -0.416277       -11.3275
 294   2.0000      -0.396750       -10.7961
 295   2.0000      -0.386902       -10.5281
 296   2.0000      -0.384493       -10.4626
 297   2.0000      -0.380613       -10.3570
 298   2.0000      -0.378719       -10.3055
 299   2.0000      -0.372526       -10.1370
 300   2.0000      -0.372424       -10.1342
 301   2.0000      -0.370916       -10.0931
 302   2.0000      -0.369470       -10.0538
 303   2.0000      -0.367616       -10.0033
 304   2.0000      -0.365981        -9.9589
 305   2.0000      -0.362326        -9.8594
 306   2.0000      -0.360893        -9.8204
 307   2.0000      -0.356962        -9.7134
 308   2.0000      -0.348476        -9.4825
 309   2.0000      -0.344056        -9.3622
 310   2.0000      -0.339146        -9.2286
 311   2.0000      -0.329331        -8.9615
 312   2.0000      -0.291343        -7.9278
 313   2.0000      -0.269954        -7.3458
 314   0.0000      -0.080881        -2.2009
 315   0.0000      -0.072693        -1.9781
 316   0.0000      -0.045957        -1.2506
 317   0.0000      -0.042887        -1.1670
 318   0.0000      -0.031305        -0.8519

MULLIKEN ATOMIC CHARGES
-----------------------
   0 C :    0.231504
   1 O :   -0.202211
   2 C :   -0.061687
   3 C :   -0.090812
   4 C :    0.240753
   5 C :    0.243241
   6 C :   -0.083734
   7 C :    0.024500
   8 C :    0.289815
   9 C :   -0.378313
  10 C :   -0.126204
  11 N :    0.093592
  12 C :   -0.133148
  13 N :    0.108697
  14 C :   -0.148592
  15 C :   -0.000432
  16 C :    0.229537
  17 O :   -0.200717
  18 C :   -0.057687
  19 C :   -0.094685
  20 C :    0.241513
  21 C :    0.244727
  22 C :   -0.086657
  23 C :    0.023643
  24 C :    0.291955
  25 C :   -0.384638
  26 C :   -0.123495
  27 N :    0.092273
  28 C :   -0.132090
  29 N :    0.105704
  30 C :   -0.151631
  31 C :    0.003633
  32 C :   -0.092538
  33 S :    0.223777
  34 C :   -0.046108
  35 C :    0.026205
  36 C :   -0.062732
  37 C :   -0.071328
  38 C :    0.028010
  39 C :   -0.181122
  40 S :    0.231103
  41 C :   -0.081869
  42 C :   -0.082759
  43 C :   -0.095308
  44 C :   -0.116113
  45 S :    0.168323
  46 C :   -0.079865
  47 C :   -0.029205
  48 C :    0.050575
  49 C :   -0.036735
  50 C :    0.012428
  51 C :   -0.196696
  52 S :    0.222136
  53 C :   -0.093294
  54 C :   -0.047235
  55 C :    0.033329
  56 C :   -0.022641
  57 C :    0.034282
  58 C :   -0.020327
  59 C :    0.017932
  60 C :   -0.021707
  61 C :    0.032244
  62 C :   -0.018118
  63 F :   -0.181059
  64 F :   -0.184788
  65 F :   -0.184658
  66 F :   -0.180010
  67 S :    0.149083
  68 C :   -0.110841
  69 C :   -0.002734
  70 C :   -0.047817
  71 C :    0.172865
  72 C :    0.017412
  73 C :    0.027167
  74 C :    0.202929
  75 C :   -0.296003
  76 S :    0.153601
  77 C :   -0.292019
  78 C :    0.064362
  79 C :   -0.031479
  80 C :    0.071383
  81 C :   -0.034205
  82 O :   -0.239982
  83 O :   -0.206035
  84 H :    0.040134
  85 H :    0.044843
  86 H :    0.029947
  87 H :    0.039354
  88 H :    0.044090
  89 H :    0.027246
  90 H :    0.032867
  91 H :    0.018316
  92 H :    0.018949
  93 H :    0.029991
  94 H :    0.029577
  95 H :    0.028071
  96 H :    0.040765
  97 H :    0.040362
  98 H :    0.038354
  99 H :    0.031651
 100 H :    0.027628
 101 H :    0.047662
 102 H :    0.036343
 103 H :    0.037010
 104 H :    0.026523
 105 H :    0.035378
 106 H :    0.040199
 107 H :    0.037303
 108 H :    0.041384
 109 H :    0.024298
 110 H :    0.033569
 111 H :    0.030810
 112 H :    0.042115
 113 H :    0.033887
 114 H :    0.064753
 115 H :    0.027569
 116 H :    0.039726
 117 H :    0.044051
 118 H :    0.027946
 119 H :    0.026115
 120 H :    0.061890
 121 H :    0.025687
 122 H :    0.044802
 123 H :    0.048664
Sum of atomic charges:   -0.0000000

LOEWDIN ATOMIC CHARGES
----------------------
   0 C :    0.091673
   1 O :   -0.169993
   2 C :   -0.049731
   3 C :   -0.007057
   4 C :    0.074073
   5 C :    0.076726
   6 C :   -0.017423
   7 C :   -0.019050
   8 C :    0.081562
   9 C :   -0.151358
  10 C :   -0.014639
  11 N :   -0.058990
  12 C :   -0.015043
  13 N :   -0.054910
  14 C :   -0.134221
  15 C :    0.064876
  16 C :    0.090693
  17 O :   -0.169530
  18 C :   -0.049216
  19 C :   -0.007549
  20 C :    0.073517
  21 C :    0.076487
  22 C :   -0.017867
  23 C :   -0.018974
  24 C :    0.081867
  25 C :   -0.153249
  26 C :   -0.014465
  27 N :   -0.060366
  28 C :   -0.014786
  29 N :   -0.056947
  30 C :   -0.136290
  31 C :    0.064540
  32 C :   -0.194781
  33 S :    0.511319
  34 C :   -0.164470
  35 C :   -0.049335
  36 C :   -0.008872
  37 C :   -0.213905
  38 C :   -0.024088
  39 C :   -0.039267
  40 S :    0.518212
  41 C :   -0.189878
  42 C :   -0.059284
  43 C :   -0.126430
  44 C :   -0.183917
  45 S :    0.436686
  46 C :   -0.200066
  47 C :   -0.025017
  48 C :   -0.018801
  49 C :   -0.168077
  50 C :   -0.047776
  51 C :   -0.040231
  52 S :    0.508938
  53 C :   -0.192849
  54 C :   -0.006018
  55 C :   -0.013380
  56 C :   -0.059981
  57 C :   -0.012908
  58 C :   -0.059131
  59 C :   -0.017108
  60 C :   -0.058262
  61 C :   -0.013495
  62 C :   -0.060238
  63 F :   -0.048674
  64 F :   -0.050915
  65 F :   -0.049995
  66 F :   -0.047690
  67 S :    0.459691
  68 C :   -0.141282
  69 C :   -0.094298
  70 C :   -0.101408
  71 C :    0.092247
  72 C :   -0.111586
  73 C :   -0.111507
  74 C :    0.094995
  75 C :   -0.118898
  76 S :    0.461194
  77 C :   -0.117766
  78 C :   -0.051359
  79 C :   -0.048140
  80 C :   -0.050300
  81 C :   -0.048013
  82 O :   -0.184682
  83 O :   -0.162219
  84 H :    0.055063
  85 H :    0.053900
  86 H :    0.052401
  87 H :    0.054825
  88 H :    0.053706
  89 H :    0.051916
  90 H :    0.040599
  91 H :    0.025183
  92 H :    0.037435
  93 H :    0.042435
  94 H :    0.026044
  95 H :    0.025509
  96 H :    0.027230
  97 H :    0.030127
  98 H :    0.026477
  99 H :    0.027117
 100 H :    0.024900
 101 H :    0.030110
 102 H :    0.029302
 103 H :    0.025912
 104 H :    0.024732
 105 H :    0.025173
 106 H :    0.026847
 107 H :    0.029149
 108 H :    0.027884
 109 H :    0.023475
 110 H :    0.030290
 111 H :    0.024293
 112 H :    0.033231
 113 H :    0.025562
 114 H :    0.043754
 115 H :    0.029088
 116 H :    0.027367
 117 H :    0.029641
 118 H :    0.022826
 119 H :    0.028530
 120 H :    0.044475
 121 H :    0.022239
 122 H :    0.030441
 123 H :    0.029465

  Mayer bond orders larger than 0.100000
B(  0-C ,  1-O ) :   2.1242 B(  0-C ,  2-C ) :   0.9681 B(  0-C , 14-C ) :   0.9910
B(  2-C ,  3-C ) :   1.3459 B(  2-C ,  7-C ) :   1.3448 B(  3-C ,  4-C ) :   1.3277
B(  3-C , 84-H ) :   1.0156 B(  4-C ,  5-C ) :   1.2947 B(  4-C , 65-F ) :   1.0989
B(  5-C ,  6-C ) :   1.3474 B(  5-C , 66-F ) :   1.1146 B(  6-C ,  7-C ) :   1.3375
B(  6-C , 85-H ) :   0.9885 B(  7-C ,  8-C ) :   1.0133 B(  8-C ,  9-C ) :   1.6289
B(  8-C , 14-C ) :   1.1098 B(  9-C , 10-C ) :   1.1335 B(  9-C , 12-C ) :   1.1308
B( 10-C , 11-N ) :   2.9536 B( 12-C , 13-N ) :   2.9728 B( 14-C , 15-C ) :   1.4866
B( 15-C , 53-C ) :   1.3239 B( 15-C , 86-H ) :   0.9400 B( 16-C , 17-O ) :   2.1276
B( 16-C , 18-C ) :   0.9659 B( 16-C , 30-C ) :   0.9905 B( 18-C , 19-C ) :   1.3456
B( 18-C , 23-C ) :   1.3482 B( 19-C , 20-C ) :   1.3258 B( 19-C , 87-H ) :   1.0156
B( 20-C , 21-C ) :   1.2967 B( 20-C , 64-F ) :   1.1003 B( 21-C , 22-C ) :   1.3475
B( 21-C , 63-F ) :   1.1135 B( 22-C , 23-C ) :   1.3373 B( 22-C , 88-H ) :   0.9887
B( 23-C , 24-C ) :   1.0108 B( 24-C , 25-C ) :   1.6243 B( 24-C , 30-C ) :   1.1156
B( 25-C , 26-C ) :   1.1361 B( 25-C , 28-C ) :   1.1309 B( 26-C , 27-N ) :   2.9513
B( 28-C , 29-N ) :   2.9726 B( 30-C , 31-C ) :   1.4782 B( 31-C , 32-C ) :   1.3300
B( 31-C , 89-H ) :   0.9396 B( 32-C , 33-S ) :   1.0658 B( 32-C , 36-C ) :   1.3043
B( 33-S , 34-C ) :   1.1148 B( 34-C , 35-C ) :   1.4208 B( 34-C , 37-C ) :   1.2264
B( 35-C , 36-C ) :   1.4133 B( 35-C , 39-C ) :   0.9089 B( 36-C , 90-H ) :   1.0105
B( 37-C , 38-C ) :   1.4716 B( 37-C , 40-S ) :   1.0563 B( 38-C , 39-C ) :   0.9314
B( 38-C , 42-C ) :   1.3978 B( 39-C , 59-C ) :   1.0286 B( 39-C , 61-C ) :   1.0176
B( 40-S , 41-C ) :   1.1397 B( 41-C , 42-C ) :   1.3892 B( 41-C , 43-C ) :   1.2027
B( 42-C , 91-H ) :   0.9896 B( 43-C , 67-S ) :   1.1471 B( 43-C , 70-C ) :   1.4975
B( 44-C , 45-S ) :   1.1098 B( 44-C , 48-C ) :   1.4802 B( 44-C , 68-C ) :   1.1067
B( 45-S , 46-C ) :   1.0928 B( 46-C , 47-C ) :   1.4900 B( 46-C , 49-C ) :   1.2261
B( 47-C , 48-C ) :   1.3476 B( 47-C , 51-C ) :   0.9192 B( 48-C , 92-H ) :   0.9923
B( 49-C , 50-C ) :   1.4164 B( 49-C , 52-S ) :   1.1100 B( 50-C , 51-C ) :   0.9065
B( 50-C , 54-C ) :   1.4102 B( 51-C , 55-C ) :   1.0426 B( 51-C , 57-C ) :   1.0425
B( 52-S , 53-C ) :   1.0680 B( 53-C , 54-C ) :   1.3071 B( 54-C , 93-H ) :   1.0166
B( 55-C , 56-C ) :   1.0842 B( 55-C , 94-H ) :   0.9490 B( 55-C , 95-H ) :   0.9484
B( 56-C , 96-H ) :   0.9685 B( 56-C , 97-H ) :   0.9701 B( 56-C , 98-H ) :   0.9685
B( 57-C , 58-C ) :   1.0853 B( 57-C , 99-H ) :   0.9468 B( 57-C ,100-H ) :   0.9494
B( 58-C ,101-H ) :   0.9660 B( 58-C ,102-H ) :   0.9700 B( 58-C ,103-H ) :   0.9696
B( 59-C , 60-C ) :   1.0865 B( 59-C ,104-H ) :   0.9496 B( 59-C ,105-H ) :   0.9476
B( 60-C ,106-H ) :   0.9672 B( 60-C ,107-H ) :   0.9710 B( 60-C ,108-H ) :   0.9694
B( 61-C , 62-C ) :   1.0985 B( 61-C ,109-H ) :   0.9447 B( 61-C ,110-H ) :   0.9478
B( 62-C ,111-H ) :   0.9678 B( 62-C ,112-H ) :   0.9669 B( 62-C ,113-H ) :   0.9672
B( 67-S , 68-C ) :   1.1410 B( 68-C , 69-C ) :   1.5541 B( 69-C , 70-C ) :   1.1765
B( 69-C , 71-C ) :   0.9836 B( 70-C , 74-C ) :   1.0192 B( 71-C , 72-C ) :   0.9939
B( 71-C , 83-O ) :   2.1114 B( 72-C , 73-C ) :   1.1635 B( 72-C , 75-C ) :   1.5759
B( 73-C , 74-C ) :   1.0137 B( 73-C , 77-C ) :   1.5619 B( 74-C , 82-O ) :   1.9992
B( 75-C , 76-S ) :   1.1727 B( 75-C , 78-C ) :   1.0556 B( 76-S , 77-C ) :   1.1745
B( 77-C , 80-C ) :   1.0608 B( 78-C , 79-C ) :   1.0809 B( 78-C ,114-H ) :   0.9166
B( 78-C ,115-H ) :   0.9259 B( 79-C ,116-H ) :   0.9741 B( 79-C ,117-H ) :   0.9727
B( 79-C ,118-H ) :   0.9722 B( 80-C , 81-C ) :   1.0773 B( 80-C ,119-H ) :   0.9257
B( 80-C ,120-H ) :   0.9166 B( 81-C ,121-H ) :   0.9720 B( 81-C ,122-H ) :   0.9724
B( 81-C ,123-H ) :   0.9737

-----------------------------------------------------------------------------
         ABSORPTION SPECTRUM VIA TRANSITION ELECTRIC DIPOLE MOMENTS
-----------------------------------------------------------------------------
State   Energy  Wavelength   fosc         T2         TX        TY        TZ
        (cm-1)    (nm)                  (au**2)     (au)      (au)      (au)
-----------------------------------------------------------------------------
   0   17896.5    558.8   3.339218298  61.42604   0.20496   1.50948  -7.68801
   1   21860.7    457.4   0.808606392  12.17725   0.00310   3.41692   0.70844
   2   28350.0    352.7   0.029114669   0.33809  -0.02818  -0.55145   0.18221
   3   28584.0    349.8   0.010007410   0.11526   0.00978  -0.26356  -0.21377
   4   29715.4    336.5   0.008624613   0.09555  -0.17787   0.00799  -0.25268
   5   31086.8    321.7   0.227170551   2.40576   0.14863   0.24073   1.52503
   6   32090.0    311.6   0.003986208   0.04089  -0.16215   0.07385  -0.09565
   7   33551.5    298.0   0.035333375   0.34670  -0.22851  -0.46839  -0.27403
   8   35569.6    281.1   0.231178034   2.13965  -0.99972  -1.06741   0.02938
   9   35828.5    279.1   0.125908878   1.15692   0.06882   0.63207   0.86757
  10   36276.9    275.7   0.266659881   2.41993  -0.64464  -1.34014  -0.45650
  11   36615.3    273.1   0.032140219   0.28898   0.36430  -0.30352  -0.25326
  12   37451.9    267.0   0.063038507   0.55412  -0.09868  -0.39729  -0.62173
  13   37834.6    264.3   0.099374820   0.86469  -0.39210  -0.69275  -0.48068
  14   38652.9    258.7   0.421287988   3.58817   0.89836   1.40745   0.89455
  15   39262.2    254.7   0.016800722   0.14087   0.13500  -0.31063  -0.16173
  16   39507.9    253.1   0.455563920   3.79613  -0.88860  -1.54389   0.78924
  17   39996.1    250.0   0.128328415   1.05629   0.39225  -0.64480  -0.69761
  18   40241.6    248.5   0.033895336   0.27729   0.27670   0.34936  -0.28049

Dispersion correction           -0.079081590
FINAL SINGLE POINT ENERGY     -5843.195945265696

DIPOLE MOMENT
-------------
                                X             Y             Z
Electronic contribution:    -18.88858     -53.97106       9.49459
Nuclear contribution   :     18.90917      56.88070      -9.24991
                        -----------------------------------------
Total Dipole Moment    :      0.02060       2.90964       0.24468
                        -----------------------------------------
Magnitude (a.u.)       :      2.91998
Magnitude (Debye)      :      7.42200

Rotational constants in cm-1:     0.000997     0.000183     0.000159
Rotational constants in MHz :    29.889991     5.484555     4.756778

                             ****ORCA TERMINATED NORMALLY****
TOTAL RUN TIME: 0 days 0 hours 15 minutes 10 seconds 55 msec
