                         Program Version 4.2.0 -  RELEASE  -
|  1> # ORCA input file
|  2> # SCF done       -215.885635685966          0.000393148064
|  3> ! wb97x-d3 def2-SVP def2/J RIJCOSX Grid4 TightSCF
|  4> %maxcore 5000
|  5> %tddft
|  6>     Mode sTDDFT
|  7>     Ethresh 5.0
|  8>     maxcore 5000
|  9> end
| 10>
| 11> %pal
| 12>   nprocs 6
| 13>   end
| 14> * xyz 0 1
| 15>    C        1.93914        -1.68705        -1.79613
| 16>    O        1.83788        -2.89760        -1.77062
| 17>    C        2.42198        -0.90282        -2.95572
| 18>    C        2.78794        -1.36838        -4.20298
| 19>    C        3.19404        -0.43533        -5.14288
| 20>    C        3.22775         0.92270        -4.82628
| 21>    C        2.86560         1.38847        -3.57096
| 22>    C        2.45858         0.46023        -2.62532
| 23>    C        2.02322         0.61289        -1.23710
| 24>    C        2.07134         1.78625        -0.53024
| 25>    C        1.76314         1.94927         0.83790
| 26>    N        1.55895         2.17625         1.94511
| 27>    C        2.49049         3.01826        -1.07680
| 28>    N        2.81448         4.05122        -1.45831
| 29>    C        1.62074        -0.69552        -0.75229
| 30>    C        0.95740        -0.88300         0.43838
| 31>    C       -0.91315       -18.79960         6.64780
| 32>    O       -0.56940       -17.67842         6.32480
| 33>    C       -0.11956       -20.03620         6.48011
| 34>    C        1.14907       -20.17603         5.95444
| 35>    C        1.68869       -21.45165         5.91063
| 36>    C        0.96432       -22.54578         6.38362
| 37>    C       -0.31139       -22.40405         6.91011
| 38>    C       -0.85827       -21.13141         6.95790
| 39>    C       -2.15221       -20.65019         7.44686
| 40>    C       -3.14368       -21.44717         7.95900
| 41>    C       -4.40242       -21.00820         8.42021
| 42>    N       -5.44815       -20.73951         8.81321
| 43>    C       -3.04345       -22.84872         8.09138
| 44>    N       -3.02983       -23.98822         8.22873
| 45>    C       -2.17201       -19.21240         7.27349
| 46>    C       -3.19133       -18.37461         7.65935
| 47>    C       -3.32040       -16.98461         7.56846
| 48>    S       -2.15430       -15.86598         6.85646
| 49>    C       -3.18654       -14.54727         7.24442
| 50>    C       -4.38104       -14.96229         7.90190
| 51>    C       -4.45121       -16.32956         8.07480
| 52>    C       -3.26357       -13.15980         7.15018
| 53>    C       -4.48458       -12.76918         7.74944
| 54>    N       -5.14990       -13.87057         8.21177
| 55>    S       -2.38427       -11.79497         6.57652
| 56>    C       -3.64941       -10.71457         7.16883
| 57>    C       -4.70039       -11.39046         7.74877
| 58>    C       -3.46993        -9.31653         6.94447
| 59>    C       -2.07814        -6.27518         4.95639
| 60>    S       -2.14822        -4.52235         5.05615
| 61>    C       -1.18835        -4.40743         3.62572
| 62>    C       -0.84559        -5.67901         3.10066
| 63>    C       -1.34946        -6.72529         3.85947
| 64>    C       -0.61532        -3.46779         2.77264
| 65>    C        0.05440        -4.19443         1.74687
| 66>    N       -0.11039        -5.53977         1.95505
| 67>    S       -0.45032        -1.77664         2.55717
| 68>    C        0.50640        -2.04156         1.08378
| 69>    C        0.67962        -3.39485         0.80615
| 70>    C        0.49111        -6.59752         1.18347
| 71>    C        1.87503        -6.96235         1.71577
| 72>    C       -6.45285       -13.88255         8.82638
| 73>    C       -7.56202       -14.02037         7.78586
| 74>    F        1.51033       -23.76601         6.33146
| 75>    F        2.91691       -21.63554         5.41109
| 76>    F        3.55439        -0.84048        -6.36751
| 77>    F        3.61668         1.80325        -5.75588
| 78>    S       -2.52453        -8.87173         5.55430
| 79>    C       -2.69630        -7.16483         5.87470
| 80>    C       -3.43900        -6.97359         7.03658
| 81>    C       -3.88188        -8.19077         7.64229
| 82>    C       -3.72575        -5.66316         7.60071
| 83>    C       -4.36646        -5.68574         8.90761
| 84>    C       -4.78016        -6.90170         9.53794
| 85>    C       -4.61961        -8.21370         8.91376
| 86>    C       -4.60252        -4.57236         9.67752
| 87>    S       -5.33419        -5.01237        11.18057
| 88>    C       -5.32609        -6.69613        10.78139
| 89>    C       -4.34817        -3.14429         9.36013
| 90>    C       -5.48020        -2.56847         8.50369
| 91>    C       -5.90547        -7.68343        11.72809
| 92>    C       -7.37306        -7.95953        11.38736
| 93>    O       -5.05634        -9.23532         9.42278
| 94>    O       -3.43579        -4.61486         7.03145
| 95>    H        2.75830        -2.41929        -4.44267
| 96>    H        2.90755         2.44781        -3.37910
| 97>    H        0.70654         0.02190         0.97950
| 98>    H        1.70495       -19.32658         5.59095
| 99>    H       -0.82694       -23.28217         7.26233
|100>    H       -4.04642       -18.84530         8.12914
|101>    H       -5.25935       -16.86485         8.54025
|102>    H       -5.56522       -10.89815         8.14732
|103>    H       -1.20631        -7.77014         3.64855
|104>    H        1.23469        -3.73793        -0.04659
|105>    H       -0.17011        -7.46713         1.22366
|106>    H        0.56487        -6.26058         0.14656
|107>    H        1.80853        -7.29187         2.75009
|108>    H        2.30238        -7.76379         1.12015
|109>    H        2.53625        -6.10063         1.66701
|110>    H       -6.49089       -14.71823         9.52984
|111>    H       -6.57146       -12.95011         9.38395
|112>    H       -7.44466       -14.94611         7.22744
|113>    H       -8.53152       -14.02879         8.27550
|114>    H       -7.53037       -13.18757         7.08735
|115>    H       -4.26194        -2.57450        10.28727
|116>    H       -3.41505        -3.06641         8.79856
|117>    H       -6.43644        -2.66999         9.01272
|118>    H       -5.29548        -1.51566         8.31081
|119>    H       -5.52565        -3.09131         7.55233
|120>    H       -5.34551        -8.61723        11.65160
|121>    H       -5.83205        -7.29901        12.74715
|122>    H       -7.44581        -8.38882        10.39166
|123>    H       -7.79263        -8.66280        12.10130
|124>    H       -7.95303        -7.03967        11.41920
|125> *
|126>
|127>                          ****END OF INPUT****

CARTESIAN COORDINATES (ANGSTROEM)
---------------------------------
  C      1.939140   -1.687050   -1.796130
  O      1.837880   -2.897600   -1.770620
  C      2.421980   -0.902820   -2.955720
  C      2.787940   -1.368380   -4.202980
  C      3.194040   -0.435330   -5.142880
  C      3.227750    0.922700   -4.826280
  C      2.865600    1.388470   -3.570960
  C      2.458580    0.460230   -2.625320
  C      2.023220    0.612890   -1.237100
  C      2.071340    1.786250   -0.530240
  C      1.763140    1.949270    0.837900
  N      1.558950    2.176250    1.945110
  C      2.490490    3.018260   -1.076800
  N      2.814480    4.051220   -1.458310
  C      1.620740   -0.695520   -0.752290
  C      0.957400   -0.883000    0.438380
  C     -0.913150  -18.799600    6.647800
  O     -0.569400  -17.678420    6.324800
  C     -0.119560  -20.036200    6.480110
  C      1.149070  -20.176030    5.954440
  C      1.688690  -21.451650    5.910630
  C      0.964320  -22.545780    6.383620
  C     -0.311390  -22.404050    6.910110
  C     -0.858270  -21.131410    6.957900
  C     -2.152210  -20.650190    7.446860
  C     -3.143680  -21.447170    7.959000
  C     -4.402420  -21.008200    8.420210
  N     -5.448150  -20.739510    8.813210
  C     -3.043450  -22.848720    8.091380
  N     -3.029830  -23.988220    8.228730
  C     -2.172010  -19.212400    7.273490
  C     -3.191330  -18.374610    7.659350
  C     -3.320400  -16.984610    7.568460
  S     -2.154300  -15.865980    6.856460
  C     -3.186540  -14.547270    7.244420
  C     -4.381040  -14.962290    7.901900
  C     -4.451210  -16.329560    8.074800
  C     -3.263570  -13.159800    7.150180
  C     -4.484580  -12.769180    7.749440
  N     -5.149900  -13.870570    8.211770
  S     -2.384270  -11.794970    6.576520
  C     -3.649410  -10.714570    7.168830
  C     -4.700390  -11.390460    7.748770
  C     -3.469930   -9.316530    6.944470
  C     -2.078140   -6.275180    4.956390
  S     -2.148220   -4.522350    5.056150
  C     -1.188350   -4.407430    3.625720
  C     -0.845590   -5.679010    3.100660
  C     -1.349460   -6.725290    3.859470
  C     -0.615320   -3.467790    2.772640
  C      0.054400   -4.194430    1.746870
  N     -0.110390   -5.539770    1.955050
  S     -0.450320   -1.776640    2.557170
  C      0.506400   -2.041560    1.083780
  C      0.679620   -3.394850    0.806150
  C      0.491110   -6.597520    1.183470
  C      1.875030   -6.962350    1.715770
  C     -6.452850  -13.882550    8.826380
  C     -7.562020  -14.020370    7.785860
  F      1.510330  -23.766010    6.331460
  F      2.916910  -21.635540    5.411090
  F      3.554390   -0.840480   -6.367510
  F      3.616680    1.803250   -5.755880
  S     -2.524530   -8.871730    5.554300
  C     -2.696300   -7.164830    5.874700
  C     -3.439000   -6.973590    7.036580
  C     -3.881880   -8.190770    7.642290
  C     -3.725750   -5.663160    7.600710
  C     -4.366460   -5.685740    8.907610
  C     -4.780160   -6.901700    9.537940
  C     -4.619610   -8.213700    8.913760
  C     -4.602520   -4.572360    9.677520
  S     -5.334190   -5.012370   11.180570
  C     -5.326090   -6.696130   10.781390
  C     -4.348170   -3.144290    9.360130
  C     -5.480200   -2.568470    8.503690
  C     -5.905470   -7.683430   11.728090
  C     -7.373060   -7.959530   11.387360
  O     -5.056340   -9.235320    9.422780
  O     -3.435790   -4.614860    7.031450
  H      2.758300   -2.419290   -4.442670
  H      2.907550    2.447810   -3.379100
  H      0.706540    0.021900    0.979500
  H      1.704950  -19.326580    5.590950
  H     -0.826940  -23.282170    7.262330
  H     -4.046420  -18.845300    8.129140
  H     -5.259350  -16.864850    8.540250
  H     -5.565220  -10.898150    8.147320
  H     -1.206310   -7.770140    3.648550
  H      1.234690   -3.737930   -0.046590
  H     -0.170110   -7.467130    1.223660
  H      0.564870   -6.260580    0.146560
  H      1.808530   -7.291870    2.750090
  H      2.302380   -7.763790    1.120150
  H      2.536250   -6.100630    1.667010
  H     -6.490890  -14.718230    9.529840
  H     -6.571460  -12.950110    9.383950
  H     -7.444660  -14.946110    7.227440
  H     -8.531520  -14.028790    8.275500
  H     -7.530370  -13.187570    7.087350
  H     -4.261940   -2.574500   10.287270
  H     -3.415050   -3.066410    8.798560
  H     -6.436440   -2.669990    9.012720
  H     -5.295480   -1.515660    8.310810
  H     -5.525650   -3.091310    7.552330
  H     -5.345510   -8.617230   11.651600
  H     -5.832050   -7.299010   12.747150
  H     -7.445810   -8.388820   10.391660
  H     -7.792630   -8.662800   12.101300
  H     -7.953030   -7.039670   11.419200

 Total Charge           Charge          ....    0
 Multiplicity           Mult            ....    1
 Number of Electrons    NEL             ....  596
 Basis Dimension        Dim             .... 1294

ORBITAL ENERGIES
----------------

  NO   OCC          E(Eh)            E(eV)
   0   2.0000     -89.008764     -2422.0516
   1   2.0000     -88.997700     -2421.7505
   2   2.0000     -88.994702     -2421.6690
   3   2.0000     -88.990236     -2421.5474
   4   2.0000     -88.989686     -2421.5325
   5   2.0000     -88.988656     -2421.5044
   6   2.0000     -24.834082      -675.7697
   7   2.0000     -24.832365      -675.7230
   8   2.0000     -24.831894      -675.7102
   9   2.0000     -24.830317      -675.6673
  10   2.0000     -19.260173      -524.0960
  11   2.0000     -19.257568      -524.0251
  12   2.0000     -19.255326      -523.9641
  13   2.0000     -19.250695      -523.8380
  14   2.0000     -14.513868      -394.9424
  15   2.0000     -14.509377      -394.8202
  16   2.0000     -14.455165      -393.3450
  17   2.0000     -14.450171      -393.2091
  18   2.0000     -14.448705      -393.1693
  19   2.0000     -14.446776      -393.1168
  20   2.0000     -10.419870      -283.5391
  21   2.0000     -10.419216      -283.5213
  22   2.0000     -10.417519      -283.4751
  23   2.0000     -10.416915      -283.4587
  24   2.0000     -10.409334      -283.2524
  25   2.0000     -10.408776      -283.2372
  26   2.0000     -10.407472      -283.2017
  27   2.0000     -10.407354      -283.1985
  28   2.0000     -10.382524      -282.5228
  29   2.0000     -10.379180      -282.4319
  30   2.0000     -10.378368      -282.4098
  31   2.0000     -10.378124      -282.4031
  32   2.0000     -10.377912      -282.3974
  33   2.0000     -10.374572      -282.3064
  34   2.0000     -10.364817      -282.0410
  35   2.0000     -10.363068      -281.9934
  36   2.0000     -10.362307      -281.9727
  37   2.0000     -10.361446      -281.9493
  38   2.0000     -10.361428      -281.9488
  39   2.0000     -10.359556      -281.8978
  40   2.0000     -10.358852      -281.8787
  41   2.0000     -10.356939      -281.8266
  42   2.0000     -10.356714      -281.8205
  43   2.0000     -10.356600      -281.8174
  44   2.0000     -10.356242      -281.8077
  45   2.0000     -10.355832      -281.7965
  46   2.0000     -10.354623      -281.7636
  47   2.0000     -10.353021      -281.7200
  48   2.0000     -10.351683      -281.6836
  49   2.0000     -10.351310      -281.6735
  50   2.0000     -10.350297      -281.6459
  51   2.0000     -10.349819      -281.6329
  52   2.0000     -10.348638      -281.6007
  53   2.0000     -10.348421      -281.5949
  54   2.0000     -10.348236      -281.5898
  55   2.0000     -10.345204      -281.5073
  56   2.0000     -10.343170      -281.4520
  57   2.0000     -10.342795      -281.4418
  58   2.0000     -10.342322      -281.4289
  59   2.0000     -10.340674      -281.3840
  60   2.0000     -10.340468      -281.3784
  61   2.0000     -10.339737      -281.3586
  62   2.0000     -10.338230      -281.3175
  63   2.0000     -10.337368      -281.2941
  64   2.0000     -10.336604      -281.2733
  65   2.0000     -10.333874      -281.1990
  66   2.0000     -10.330753      -281.1141
  67   2.0000     -10.330185      -281.0986
  68   2.0000     -10.330095      -281.0962
  69   2.0000     -10.329339      -281.0756
  70   2.0000     -10.328275      -281.0466
  71   2.0000     -10.327746      -281.0323
  72   2.0000     -10.321010      -280.8489
  73   2.0000     -10.320680      -280.8400
  74   2.0000     -10.314747      -280.6785
  75   2.0000     -10.312669      -280.6220
  76   2.0000     -10.311069      -280.5784
  77   2.0000     -10.307564      -280.4831
  78   2.0000     -10.296879      -280.1923
  79   2.0000     -10.291821      -280.0547
  80   2.0000      -8.122999      -221.0380
  81   2.0000      -8.112511      -220.7526
  82   2.0000      -8.108148      -220.6339
  83   2.0000      -8.103587      -220.5098
  84   2.0000      -8.101190      -220.4446
  85   2.0000      -8.099349      -220.3945
  86   2.0000      -6.082532      -165.5141
  87   2.0000      -6.078198      -165.3962
  88   2.0000      -6.075212      -165.3149
  89   2.0000      -6.071696      -165.2192
  90   2.0000      -6.068079      -165.1208
  91   2.0000      -6.067410      -165.1026
  92   2.0000      -6.065406      -165.0481
  93   2.0000      -6.063912      -165.0074
  94   2.0000      -6.063285      -164.9904
  95   2.0000      -6.061245      -164.9349
  96   2.0000      -6.059605      -164.8902
  97   2.0000      -6.059519      -164.8879
  98   2.0000      -6.059307      -164.8821
  99   2.0000      -6.056621      -164.8090
 100   2.0000      -6.055333      -164.7740
 101   2.0000      -6.054825      -164.7602
 102   2.0000      -6.052762      -164.7040
 103   2.0000      -6.050866      -164.6524
 104   2.0000      -1.363629       -37.1062
 105   2.0000      -1.361306       -37.0430
 106   2.0000      -1.348549       -36.6959
 107   2.0000      -1.346259       -36.6336
 108   2.0000      -1.178527       -32.0694
 109   2.0000      -1.176244       -32.0072
 110   2.0000      -1.174478       -31.9592
 111   2.0000      -1.170738       -31.8574
 112   2.0000      -1.146626       -31.2013
 113   2.0000      -1.142429       -31.0871
 114   2.0000      -1.061740       -28.8914
 115   2.0000      -1.058441       -28.8016
 116   2.0000      -1.058078       -28.7918
 117   2.0000      -1.043420       -28.3929
 118   2.0000      -1.041143       -28.3309
 119   2.0000      -1.039238       -28.2791
 120   2.0000      -1.033589       -28.1254
 121   2.0000      -1.029154       -28.0047
 122   2.0000      -1.027511       -27.9600
 123   2.0000      -1.026402       -27.9298
 124   2.0000      -1.024599       -27.8808
 125   2.0000      -1.014485       -27.6055
 126   2.0000      -0.996723       -27.1222
 127   2.0000      -0.993862       -27.0444
 128   2.0000      -0.959011       -26.0960
 129   2.0000      -0.954861       -25.9831
 130   2.0000      -0.945621       -25.7316
 131   2.0000      -0.942014       -25.6335
 132   2.0000      -0.939577       -25.5672
 133   2.0000      -0.938219       -25.5302
 134   2.0000      -0.926118       -25.2009
 135   2.0000      -0.917935       -24.9783
 136   2.0000      -0.913358       -24.8537
 137   2.0000      -0.911435       -24.8014
 138   2.0000      -0.910159       -24.7667
 139   2.0000      -0.898844       -24.4588
 140   2.0000      -0.895468       -24.3669
 141   2.0000      -0.890019       -24.2186
 142   2.0000      -0.887361       -24.1463
 143   2.0000      -0.886631       -24.1265
 144   2.0000      -0.878011       -23.8919
 145   2.0000      -0.857468       -23.3329
 146   2.0000      -0.854307       -23.2469
 147   2.0000      -0.852517       -23.1982
 148   2.0000      -0.850223       -23.1357
 149   2.0000      -0.840144       -22.8615
 150   2.0000      -0.821704       -22.3597
 151   2.0000      -0.814992       -22.1770
 152   2.0000      -0.812540       -22.1103
 153   2.0000      -0.809537       -22.0286
 154   2.0000      -0.792272       -21.5588
 155   2.0000      -0.786042       -21.3893
 156   2.0000      -0.774824       -21.0840
 157   2.0000      -0.771884       -21.0040
 158   2.0000      -0.767080       -20.8733
 159   2.0000      -0.764402       -20.8004
 160   2.0000      -0.760029       -20.6814
 161   2.0000      -0.752920       -20.4880
 162   2.0000      -0.746925       -20.3249
 163   2.0000      -0.744098       -20.2479
 164   2.0000      -0.742305       -20.1992
 165   2.0000      -0.729296       -19.8452
 166   2.0000      -0.727225       -19.7888
 167   2.0000      -0.705983       -19.2108
 168   2.0000      -0.704546       -19.1717
 169   2.0000      -0.703411       -19.1408
 170   2.0000      -0.698606       -19.0100
 171   2.0000      -0.694138       -18.8885
 172   2.0000      -0.686968       -18.6934
 173   2.0000      -0.686029       -18.6678
 174   2.0000      -0.681636       -18.5483
 175   2.0000      -0.679946       -18.5023
 176   2.0000      -0.678663       -18.4674
 177   2.0000      -0.675850       -18.3908
 178   2.0000      -0.664692       -18.0872
 179   2.0000      -0.656732       -17.8706
 180   2.0000      -0.654221       -17.8023
 181   2.0000      -0.650573       -17.7030
 182   2.0000      -0.648823       -17.6554
 183   2.0000      -0.642875       -17.4935
 184   2.0000      -0.638054       -17.3623
 185   2.0000      -0.635141       -17.2831
 186   2.0000      -0.634042       -17.2532
 187   2.0000      -0.633365       -17.2347
 188   2.0000      -0.629594       -17.1321
 189   2.0000      -0.625971       -17.0335
 190   2.0000      -0.624089       -16.9823
 191   2.0000      -0.621905       -16.9229
 192   2.0000      -0.621411       -16.9094
 193   2.0000      -0.607643       -16.5348
 194   2.0000      -0.601036       -16.3550
 195   2.0000      -0.597237       -16.2516
 196   2.0000      -0.595998       -16.2179
 197   2.0000      -0.594602       -16.1799
 198   2.0000      -0.590239       -16.0612
 199   2.0000      -0.587769       -15.9940
 200   2.0000      -0.587645       -15.9906
 201   2.0000      -0.586708       -15.9651
 202   2.0000      -0.584134       -15.8951
 203   2.0000      -0.583018       -15.8647
 204   2.0000      -0.582257       -15.8440
 205   2.0000      -0.580873       -15.8064
 206   2.0000      -0.577369       -15.7110
 207   2.0000      -0.574414       -15.6306
 208   2.0000      -0.572986       -15.5917
 209   2.0000      -0.572703       -15.5841
 210   2.0000      -0.569433       -15.4951
 211   2.0000      -0.568983       -15.4828
 212   2.0000      -0.567438       -15.4408
 213   2.0000      -0.565215       -15.3803
 214   2.0000      -0.562407       -15.3039
 215   2.0000      -0.559809       -15.2332
 216   2.0000      -0.557334       -15.1658
 217   2.0000      -0.553133       -15.0515
 218   2.0000      -0.545481       -14.8433
 219   2.0000      -0.543896       -14.8002
 220   2.0000      -0.541406       -14.7324
 221   2.0000      -0.537623       -14.6295
 222   2.0000      -0.536487       -14.5985
 223   2.0000      -0.536091       -14.5878
 224   2.0000      -0.534274       -14.5383
 225   2.0000      -0.531608       -14.4658
 226   2.0000      -0.530073       -14.4240
 227   2.0000      -0.529549       -14.4098
 228   2.0000      -0.528688       -14.3863
 229   2.0000      -0.528016       -14.3680
 230   2.0000      -0.527249       -14.3472
 231   2.0000      -0.523035       -14.2325
 232   2.0000      -0.521855       -14.2004
 233   2.0000      -0.519057       -14.1243
 234   2.0000      -0.517486       -14.0815
 235   2.0000      -0.515115       -14.0170
 236   2.0000      -0.511477       -13.9180
 237   2.0000      -0.509315       -13.8592
 238   2.0000      -0.506809       -13.7910
 239   2.0000      -0.505512       -13.7557
 240   2.0000      -0.501162       -13.6373
 241   2.0000      -0.499007       -13.5787
 242   2.0000      -0.495063       -13.4713
 243   2.0000      -0.493381       -13.4256
 244   2.0000      -0.492313       -13.3965
 245   2.0000      -0.491064       -13.3625
 246   2.0000      -0.489987       -13.3332
 247   2.0000      -0.488168       -13.2837
 248   2.0000      -0.487612       -13.2686
 249   2.0000      -0.487334       -13.2610
 250   2.0000      -0.486116       -13.2279
 251   2.0000      -0.481968       -13.1150
 252   2.0000      -0.480881       -13.0854
 253   2.0000      -0.479354       -13.0439
 254   2.0000      -0.478410       -13.0182
 255   2.0000      -0.477297       -12.9879
 256   2.0000      -0.475130       -12.9289
 257   2.0000      -0.472485       -12.8570
 258   2.0000      -0.470293       -12.7973
 259   2.0000      -0.467512       -12.7217
 260   2.0000      -0.466088       -12.6829
 261   2.0000      -0.464408       -12.6372
 262   2.0000      -0.462682       -12.5902
 263   2.0000      -0.462372       -12.5818
 264   2.0000      -0.460009       -12.5175
 265   2.0000      -0.458953       -12.4887
 266   2.0000      -0.457307       -12.4440
 267   2.0000      -0.455222       -12.3872
 268   2.0000      -0.453941       -12.3524
 269   2.0000      -0.449897       -12.2423
 270   2.0000      -0.447348       -12.1730
 271   2.0000      -0.444829       -12.1044
 272   2.0000      -0.441623       -12.0172
 273   2.0000      -0.440270       -11.9804
 274   2.0000      -0.438804       -11.9405
 275   2.0000      -0.436774       -11.8852
 276   2.0000      -0.422585       -11.4991
 277   2.0000      -0.413757       -11.2589
 278   2.0000      -0.395822       -10.7709
 279   2.0000      -0.386738       -10.5237
 280   2.0000      -0.384468       -10.4619
 281   2.0000      -0.380275       -10.3478
 282   2.0000      -0.378244       -10.2926
 283   2.0000      -0.376302       -10.2397
 284   2.0000      -0.372612       -10.1393
 285   2.0000      -0.371556       -10.1105
 286   2.0000      -0.371286       -10.1032
 287   2.0000      -0.369165       -10.0455
 288   2.0000      -0.366642        -9.9768
 289   2.0000      -0.362267        -9.8578
 290   2.0000      -0.350035        -9.5249
 291   2.0000      -0.344270        -9.3681
 292   2.0000      -0.338928        -9.2227
 293   2.0000      -0.332125        -9.0376
 294   2.0000      -0.315321        -8.5803
 295   2.0000      -0.311231        -8.4690
 296   2.0000      -0.291203        -7.9240
 297   2.0000      -0.270307        -7.3554
 298   0.0000      -0.078860        -2.1459
 299   0.0000      -0.071334        -1.9411
 300   0.0000      -0.045005        -1.2247
 301   0.0000      -0.042617        -1.1597
 302   0.0000      -0.030555        -0.8314

MULLIKEN ATOMIC CHARGES
-----------------------
   0 C :    0.226791
   1 O :   -0.195945
   2 C :   -0.048923
   3 C :   -0.101157
   4 C :    0.242128
   5 C :    0.246883
   6 C :   -0.090757
   7 C :    0.026973
   8 C :    0.272493
   9 C :   -0.380373
  10 C :   -0.138077
  11 N :    0.112790
  12 C :   -0.131958
  13 N :    0.107697
  14 C :   -0.143384
  15 C :    0.069190
  16 C :    0.231883
  17 O :   -0.195463
  18 C :   -0.056207
  19 C :   -0.092920
  20 C :    0.241150
  21 C :    0.245574
  22 C :   -0.087387
  23 C :    0.021865
  24 C :    0.292644
  25 C :   -0.383530
  26 C :   -0.124210
  27 N :    0.095798
  28 C :   -0.132821
  29 N :    0.106064
  30 C :   -0.144790
  31 C :   -0.000140
  32 C :   -0.083743
  33 S :    0.211068
  34 C :   -0.094843
  35 C :    0.200614
  36 C :   -0.104755
  37 C :   -0.128063
  38 C :    0.152245
  39 N :   -0.239387
  40 S :    0.150624
  41 C :   -0.104133
  42 C :   -0.002599
  43 C :   -0.115407
  44 C :   -0.067683
  45 S :    0.221586
  46 C :   -0.115155
  47 C :    0.199672
  48 C :   -0.135936
  49 C :   -0.100896
  50 C :    0.145800
  51 N :   -0.239886
  52 S :    0.168856
  53 C :   -0.157531
  54 C :   -0.027638
  55 C :    0.057536
  56 C :   -0.048255
  57 C :    0.057217
  58 C :   -0.048069
  59 F :   -0.180641
  60 F :   -0.183306
  61 F :   -0.185081
  62 F :   -0.180206
  63 S :    0.139900
  64 C :   -0.094525
  65 C :   -0.049462
  66 C :    0.002729
  67 C :    0.206592
  68 C :    0.025906
  69 C :    0.020143
  70 C :    0.175497
  71 C :   -0.294114
  72 S :    0.154751
  73 C :   -0.292703
  74 C :    0.069555
  75 C :   -0.030676
  76 C :    0.063586
  77 C :   -0.030850
  78 O :   -0.209832
  79 O :   -0.238792
  80 H :    0.039355
  81 H :    0.046800
  82 H :    0.033460
  83 H :    0.040953
  84 H :    0.045636
  85 H :    0.028100
  86 H :    0.028392
  87 H :    0.022985
  88 H :    0.019789
  89 H :    0.035034
  90 H :    0.051117
  91 H :    0.062672
  92 H :    0.044304
  93 H :    0.050005
  94 H :    0.051382
  95 H :    0.054993
  96 H :    0.061503
  97 H :    0.047370
  98 H :    0.050437
  99 H :    0.047581
 100 H :    0.027067
 101 H :    0.062910
 102 H :    0.025196
 103 H :    0.043795
 104 H :    0.047665
 105 H :    0.061713
 106 H :    0.028355
 107 H :    0.039921
 108 H :    0.041232
 109 H :    0.028689
Sum of atomic charges:   -0.0000000

LOEWDIN ATOMIC CHARGES
----------------------
   0 C :    0.097409
   1 O :   -0.155231
   2 C :   -0.049540
   3 C :   -0.008774
   4 C :    0.073752
   5 C :    0.076900
   6 C :   -0.018317
   7 C :   -0.019174
   8 C :    0.079783
   9 C :   -0.149744
  10 C :   -0.020815
  11 N :   -0.051746
  12 C :   -0.014204
  13 N :   -0.055712
  14 C :   -0.123294
  15 C :    0.058766
  16 C :    0.091526
  17 O :   -0.163085
  18 C :   -0.049189
  19 C :   -0.006948
  20 C :    0.074212
  21 C :    0.077129
  22 C :   -0.017679
  23 C :   -0.019385
  24 C :    0.081927
  25 C :   -0.151445
  26 C :   -0.014152
  27 N :   -0.060154
  28 C :   -0.014864
  29 N :   -0.054997
  30 C :   -0.131443
  31 C :    0.065479
  32 C :   -0.184875
  33 S :    0.477818
  34 C :   -0.200286
  35 C :   -0.021700
  36 C :   -0.028259
  37 C :   -0.227628
  38 C :   -0.000804
  39 N :    0.027442
  40 S :    0.405211
  41 C :   -0.176818
  42 C :   -0.041334
  43 C :   -0.138315
  44 C :   -0.180321
  45 S :    0.489960
  46 C :   -0.236698
  47 C :    0.000022
  48 C :   -0.084718
  49 C :   -0.195173
  50 C :   -0.019426
  51 N :    0.023993
  52 S :    0.432672
  53 C :   -0.181423
  54 C :   -0.018424
  55 C :    0.042564
  56 C :   -0.063830
  57 C :    0.043011
  58 C :   -0.063607
  59 F :   -0.047829
  60 F :   -0.049603
  61 F :   -0.051026
  62 F :   -0.048337
  63 S :    0.461966
  64 C :   -0.125560
  65 C :   -0.100383
  66 C :   -0.093353
  67 C :    0.095553
  68 C :   -0.111598
  69 C :   -0.111261
  70 C :    0.094202
  71 C :   -0.117172
  72 S :    0.461774
  73 C :   -0.119474
  74 C :   -0.050448
  75 C :   -0.047361
  76 C :   -0.050940
  77 C :   -0.048615
  78 O :   -0.163228
  79 O :   -0.181590
  80 H :    0.054165
  81 H :    0.054024
  82 H :    0.045616
  83 H :    0.055401
  84 H :    0.053967
  85 H :    0.051535
  86 H :    0.042214
  87 H :    0.037054
  88 H :    0.024516
  89 H :    0.036784
  90 H :    0.032436
  91 H :    0.037348
  92 H :    0.030235
  93 H :    0.034402
  94 H :    0.033018
  95 H :    0.033973
  96 H :    0.037002
  97 H :    0.031440
  98 H :    0.034773
  99 H :    0.031481
 100 H :    0.028849
 101 H :    0.044870
 102 H :    0.022078
 103 H :    0.030418
 104 H :    0.029453
 105 H :    0.043319
 106 H :    0.028981
 107 H :    0.027099
 108 H :    0.028718
 109 H :    0.023063

  Mayer bond orders larger than 0.100000
B(  0-C ,  1-O ) :   2.1337 B(  0-C ,  2-C ) :   0.9656 B(  0-C , 14-C ) :   0.9649
B(  2-C ,  3-C ) :   1.3398 B(  2-C ,  7-C ) :   1.3499 B(  3-C ,  4-C ) :   1.3286
B(  3-C , 80-H ) :   1.0163 B(  4-C ,  5-C ) :   1.2948 B(  4-C , 61-F ) :   1.0995
B(  5-C ,  6-C ) :   1.3490 B(  5-C , 62-F ) :   1.1144 B(  6-C ,  7-C ) :   1.3331
B(  6-C , 81-H ) :   0.9893 B(  7-C ,  8-C ) :   1.0105 B(  8-C ,  9-C ) :   1.6353
B(  8-C , 14-C ) :   1.1046 B(  9-C , 10-C ) :   1.1285 B(  9-C , 12-C ) :   1.1323
B( 10-C , 11-N ) :   2.9796 B( 12-C , 13-N ) :   2.9753 B( 14-C , 15-C ) :   1.5667
B( 15-C , 53-C ) :   1.2826 B( 15-C , 82-H ) :   0.9173 B( 16-C , 17-O ) :   2.1353
B( 16-C , 18-C ) :   0.9659 B( 16-C , 30-C ) :   0.9825 B( 18-C , 19-C ) :   1.3440
B( 18-C , 23-C ) :   1.3463 B( 19-C , 20-C ) :   1.3270 B( 19-C , 83-H ) :   1.0154
B( 20-C , 21-C ) :   1.2956 B( 20-C , 60-F ) :   1.1012 B( 21-C , 22-C ) :   1.3485
B( 21-C , 59-F ) :   1.1128 B( 22-C , 23-C ) :   1.3364 B( 22-C , 84-H ) :   0.9882
B( 23-C , 24-C ) :   1.0122 B( 24-C , 25-C ) :   1.6306 B( 24-C , 30-C ) :   1.1073
B( 25-C , 26-C ) :   1.1351 B( 25-C , 28-C ) :   1.1301 B( 26-C , 27-N ) :   2.9541
B( 28-C , 29-N ) :   2.9732 B( 30-C , 31-C ) :   1.5025 B( 31-C , 32-C ) :   1.3177
B( 31-C , 85-H ) :   0.9376 B( 32-C , 33-S ) :   1.0623 B( 32-C , 36-C ) :   1.3360
B( 33-S , 34-C ) :   1.0307 B( 34-C , 35-C ) :   1.3156 B( 34-C , 37-C ) :   1.4441
B( 35-C , 36-C ) :   1.2867 B( 35-C , 39-N ) :   1.1229 B( 36-C , 86-H ) :   1.0237
B( 37-C , 38-C ) :   1.3674 B( 37-C , 40-S ) :   1.0318 B( 38-C , 39-N ) :   1.1491
B( 38-C , 42-C ) :   1.2299 B( 39-N , 57-C ) :   0.9373 B( 40-S , 41-C ) :   1.0862
B( 41-C , 42-C ) :   1.5258 B( 41-C , 43-C ) :   1.1139 B( 42-C , 87-H ) :   0.9935
B( 43-C , 63-S ) :   1.1440 B( 43-C , 66-C ) :   1.5506 B( 44-C , 45-S ) :   1.1223
B( 44-C , 48-C ) :   1.4248 B( 44-C , 64-C ) :   1.2054 B( 45-S , 46-C ) :   0.9903
B( 46-C , 47-C ) :   1.3564 B( 46-C , 49-C ) :   1.4357 B( 47-C , 48-C ) :   1.2872
B( 47-C , 51-N ) :   1.1461 B( 48-C , 88-H ) :   0.9923 B( 49-C , 50-C ) :   1.3273
B( 49-C , 52-S ) :   1.0733 B( 50-C , 51-N ) :   1.1200 B( 50-C , 54-C ) :   1.2867
B( 51-N , 55-C ) :   0.9394 B( 52-S , 53-C ) :   1.0679 B( 53-C , 54-C ) :   1.3838
B( 54-C , 89-H ) :   0.9830 B( 55-C , 56-C ) :   1.0918 B( 55-C , 90-H ) :   0.9563
B( 55-C , 91-H ) :   0.9547 B( 56-C , 92-H ) :   0.9706 B( 56-C , 93-H ) :   0.9717
B( 56-C , 94-H ) :   0.9703 B( 57-C , 58-C ) :   1.0896 B( 57-C , 95-H ) :   0.9565
B( 57-C , 96-H ) :   0.9556 B( 58-C , 97-H ) :   0.9709 B( 58-C , 98-H ) :   0.9723
B( 58-C , 99-H ) :   0.9707 B( 63-S , 64-C ) :   1.1459 B( 64-C , 65-C ) :   1.5041
B( 65-C , 66-C ) :   1.1753 B( 65-C , 67-C ) :   1.0208 B( 66-C , 70-C ) :   0.9815
B( 67-C , 68-C ) :   1.0132 B( 67-C , 79-O ) :   1.9959 B( 68-C , 69-C ) :   1.1631
B( 68-C , 71-C ) :   1.5627 B( 69-C , 70-C ) :   0.9981 B( 69-C , 73-C ) :   1.5746
B( 70-C , 78-O ) :   2.0991 B( 71-C , 72-S ) :   1.1759 B( 71-C , 74-C ) :   1.0601
B( 72-S , 73-C ) :   1.1733 B( 73-C , 76-C ) :   1.0563 B( 74-C , 75-C ) :   1.0801
B( 74-C ,100-H ) :   0.9255 B( 74-C ,101-H ) :   0.9160 B( 75-C ,102-H ) :   0.9715
B( 75-C ,103-H ) :   0.9723 B( 75-C ,104-H ) :   0.9736 B( 76-C , 77-C ) :   1.0804
B( 76-C ,105-H ) :   0.9175 B( 76-C ,106-H ) :   0.9275 B( 77-C ,107-H ) :   0.9738
B( 77-C ,108-H ) :   0.9728 B( 77-C ,109-H ) :   0.9720

-----------------------------------------------------------------------------
         ABSORPTION SPECTRUM VIA TRANSITION ELECTRIC DIPOLE MOMENTS
-----------------------------------------------------------------------------
State   Energy  Wavelength   fosc         T2         TX        TY        TZ
        (cm-1)    (nm)                  (au**2)     (au)      (au)      (au)
-----------------------------------------------------------------------------
   0   18689.4    535.1   3.393242861  59.77161  -1.58078  -6.92539   3.05152
   1   22535.9    443.7   1.007986045  14.72500   2.18309  -1.85329  -2.55430
   2   27712.5    360.8   0.017882937   0.21244   0.42806   0.06097  -0.15964
   3   27891.1    358.5   0.051350357   0.60611   0.62914   0.39705  -0.22946
   4   28604.0    349.6   0.067634125   0.77842  -0.55612  -0.15124   0.66804
   5   28992.2    344.9   0.176343623   2.00242  -0.61140   0.81647   0.98081
   6   30150.3    331.7   0.026997343   0.29479  -0.09952  -0.04496  -0.53185
   7   31164.5    320.9   0.264865867   2.79796  -0.22363   1.63838   0.25230
   8   32670.5    306.1   0.002673418   0.02694   0.09171   0.04960   0.12676
   9   34106.1    293.2   0.006858477   0.06620  -0.15928  -0.03900  -0.19827
  10   34882.3    286.7   0.111440586   1.05175   0.28541  -0.79247  -0.58505
  11   35579.0    281.1   0.032985772   0.30522  -0.17603   0.33291   0.40423
  12   35821.9    279.2   0.702492760   6.45608   2.04151  -0.40553  -1.45734
  13   36179.3    276.4   0.273059552   2.48469   0.07227   0.05213   1.57377
  14   36525.8    273.8   0.028493837   0.25682  -0.13574  -0.38636  -0.29853
  15   37945.0    263.5   0.042393454   0.36781  -0.01702   0.10149  -0.59768
  16   38480.7    259.9   0.044002081   0.37645   0.31486   0.41326  -0.32639
  17   38683.0    258.5   0.500113820   4.25622  -1.08302   0.85463   1.53391
  18   38921.6    256.9   0.260055414   2.19964  -0.78533  -1.21918  -0.31063
  19   39423.6    253.7   0.047024502   0.39268   0.15485   0.51329  -0.32440
  20   39600.1    252.5   0.023392455   0.19447  -0.19281  -0.39536  -0.03134
  21   39814.2    251.2   0.150341607   1.24313   0.13861   1.01312   0.44441

Dispersion correction           -0.064989956
FINAL SINGLE POINT ENERGY     -5718.140336612833

DIPOLE MOMENT
-------------
                                X             Y             Z
Electronic contribution:     61.69147     -20.15099     -55.34424
Nuclear contribution   :    -63.60347      19.49726      56.42655
                        -----------------------------------------
Total Dipole Moment    :     -1.91200      -0.65373       1.08231
                        -----------------------------------------
Magnitude (a.u.)       :      2.29226
Magnitude (Debye)      :      5.82647

Rotational constants in cm-1:     0.000802     0.000198     0.000162
Rotational constants in MHz :    24.053359     5.935515     4.868761

                             ****ORCA TERMINATED NORMALLY****
TOTAL RUN TIME: 0 days 0 hours 12 minutes 12 seconds 103 msec
