                         Program Version 4.2.0 -  RELEASE  -
|  1> # ORCA input file
|  2> # SCF done       -191.236271553982          0.000673563046
|  3> ! wb97x-d3 def2-SVP def2/J RIJCOSX Grid4 TightSCF
|  4> %maxcore 5000
|  5> %tddft
|  6>     Mode sTDDFT
|  7>     Ethresh 5.0
|  8>     maxcore 5000
|  9> end
| 10>
| 11> %pal
| 12>   nprocs 6
| 13>   end
| 14> * xyz 0 1
| 15>    C        4.12996        -2.42896         0.02914
| 16>    O        3.69402        -2.37991        -1.09703
| 17>    C        5.41731        -3.01211         0.47636
| 18>    C        6.43590        -3.54430        -0.28819
| 19>    C        7.57244        -3.98535         0.37186
| 20>    C        7.67129        -3.89265         1.76000
| 21>    C        6.64237        -3.36961         2.53013
| 22>    C        5.50555        -2.92498         1.87626
| 23>    C        4.26247        -2.34346         2.38972
| 24>    C        3.81348        -2.46961         3.68081
| 25>    C        2.50518        -2.13739         4.08357
| 26>    N        1.44710        -1.89050         4.45441
| 27>    C        4.58198        -3.00065         4.73539
| 28>    N        5.17476        -3.38945         5.63835
| 29>    C        3.51427        -1.86437         1.25645
| 30>    F        8.78708        -4.31068         2.36873
| 31>    C        2.49154        -0.96465         1.10571
| 32>    F        8.58904        -4.49973        -0.33081
| 33>    C       -0.15543        15.49025         4.88597
| 34>    O       -0.69975        14.64798         4.20101
| 35>    C        0.17531        16.86232         4.43993
| 36>    C        0.01582        17.40786         3.18150
| 37>    C        0.42523        18.71777         2.99336
| 38>    C        0.97478        19.44863         4.04724
| 39>    C        1.12639        18.90230         5.31310
| 40>    C        0.71970        17.59149         5.50816
| 41>    C        0.74499        16.73207         6.69083
| 42>    C        1.05434        17.15006         7.95783
| 43>    C        0.97599        16.36468         9.12880
| 44>    N        0.91638        15.80917        10.13189
| 45>    C        1.45519        18.46569         8.27618
| 46>    N        1.79199        19.51449         8.59795
| 47>    C        0.31610        15.40466         6.28199
| 48>    F        1.37110        20.70823         3.83419
| 49>    C        0.50007        14.28608         7.05762
| 50>    F        0.29727        19.28602         1.78811
| 51>    C        2.01489         0.03861         1.96218
| 52>    C        2.54656         0.54048         3.14609
| 53>    C        1.83047         1.63366         3.61120
| 54>    C        0.74607         2.00117         2.77483
| 55>    S        0.60383         0.95922         1.42088
| 56>    N        1.91990         2.50310         4.66496
| 57>    C        0.94324         3.44993         4.49906
| 58>    C        0.20136         3.14960         3.33396
| 59>    C        0.54520         4.68366         5.09073
| 60>    C       -0.46655         5.28497         4.29901
| 61>    S       -1.00681         4.32336         2.94300
| 62>    C        0.96085         5.35610         6.26329
| 63>    C        0.54521         6.67386         6.42971
| 64>    C       -0.35374         7.32403         5.53015
| 65>    C       -0.96126         6.55591         4.52575
| 66>    S        1.14637         7.76388         7.68772
| 67>    C        0.33227         9.08700         6.93941
| 68>    C       -0.43096         8.71994         5.81235
| 69>    C        0.29988        10.47159         7.03987
| 70>    C       -0.47567        10.92325         5.94142
| 71>    N       -0.92440         9.85059         5.21539
| 72>    S        0.92992        11.77608         7.95744
| 73>    C        0.21153        12.93422         6.81611
| 74>    C       -0.51773        12.30441         5.81624
| 75>    O        1.75178         4.64746         7.10207
| 76>    O       -1.98592         7.01633         3.73357
| 77>    C        1.92977         5.02817         8.45913
| 78>    C        2.44832         3.81609         9.21859
| 79>    C       -3.26212         7.00623         4.37155
| 80>    C       -3.79271         5.60242         4.62707
| 81>    C       -1.65477        10.01853         3.97897
| 82>    C       -3.05897        10.56477         4.22677
| 83>    C        2.96485         2.41871         5.65541
| 84>    C        4.16658         3.27793         5.27188
| 85>    H        6.35838        -3.61378        -1.36140
| 86>    H        6.76549        -3.31617         3.59967
| 87>    H        2.05454        -0.96535         0.11100
| 88>    H       -0.40720        16.83769         2.36983
| 89>    H        1.55932        19.50819         6.09168
| 90>    H        1.01446        14.44593         7.99833
| 91>    H        3.44897         0.16412         3.59072
| 92>    H       -1.01610        12.85386         5.04038
| 93>    H        2.65371         5.84778         8.53092
| 94>    H        0.97486         5.35575         8.88396
| 95>    H        3.41156         3.50510         8.82359
| 96>    H        2.56557         4.07397        10.26675
| 97>    H        1.74807         2.98876         9.13549
| 98>    H       -3.20548         7.56171         5.31765
| 99>    H       -3.91575         7.53858         3.67751
|100>    H       -3.82630         5.03996         3.69779
|101>    H       -4.79558         5.66657         5.03994
|102>    H       -3.15725         5.07250         5.33383
|103>    H       -1.09751        10.72249         3.35208
|104>    H       -1.69960         9.05777         3.46822
|105>    H       -3.61637         9.91279         4.89444
|106>    H       -3.01585        11.55563         4.67072
|107>    H       -3.59163        10.63286         3.28269
|108>    H        2.56541         2.74607         6.61275
|109>    H        3.25561         1.36818         5.73231
|110>    H        3.88034         4.32591         5.23874
|111>    H        4.95786         3.15617         6.00604
|112>    H        4.54896         2.98950         4.29512
|113> *
|114>
|115>                          ****END OF INPUT****

CARTESIAN COORDINATES (ANGSTROEM)
---------------------------------
  C      4.129960   -2.428960    0.029140
  O      3.694020   -2.379910   -1.097030
  C      5.417310   -3.012110    0.476360
  C      6.435900   -3.544300   -0.288190
  C      7.572440   -3.985350    0.371860
  C      7.671290   -3.892650    1.760000
  C      6.642370   -3.369610    2.530130
  C      5.505550   -2.924980    1.876260
  C      4.262470   -2.343460    2.389720
  C      3.813480   -2.469610    3.680810
  C      2.505180   -2.137390    4.083570
  N      1.447100   -1.890500    4.454410
  C      4.581980   -3.000650    4.735390
  N      5.174760   -3.389450    5.638350
  C      3.514270   -1.864370    1.256450
  F      8.787080   -4.310680    2.368730
  C      2.491540   -0.964650    1.105710
  F      8.589040   -4.499730   -0.330810
  C     -0.155430   15.490250    4.885970
  O     -0.699750   14.647980    4.201010
  C      0.175310   16.862320    4.439930
  C      0.015820   17.407860    3.181500
  C      0.425230   18.717770    2.993360
  C      0.974780   19.448630    4.047240
  C      1.126390   18.902300    5.313100
  C      0.719700   17.591490    5.508160
  C      0.744990   16.732070    6.690830
  C      1.054340   17.150060    7.957830
  C      0.975990   16.364680    9.128800
  N      0.916380   15.809170   10.131890
  C      1.455190   18.465690    8.276180
  N      1.791990   19.514490    8.597950
  C      0.316100   15.404660    6.281990
  F      1.371100   20.708230    3.834190
  C      0.500070   14.286080    7.057620
  F      0.297270   19.286020    1.788110
  C      2.014890    0.038610    1.962180
  C      2.546560    0.540480    3.146090
  C      1.830470    1.633660    3.611200
  C      0.746070    2.001170    2.774830
  S      0.603830    0.959220    1.420880
  N      1.919900    2.503100    4.664960
  C      0.943240    3.449930    4.499060
  C      0.201360    3.149600    3.333960
  C      0.545200    4.683660    5.090730
  C     -0.466550    5.284970    4.299010
  S     -1.006810    4.323360    2.943000
  C      0.960850    5.356100    6.263290
  C      0.545210    6.673860    6.429710
  C     -0.353740    7.324030    5.530150
  C     -0.961260    6.555910    4.525750
  S      1.146370    7.763880    7.687720
  C      0.332270    9.087000    6.939410
  C     -0.430960    8.719940    5.812350
  C      0.299880   10.471590    7.039870
  C     -0.475670   10.923250    5.941420
  N     -0.924400    9.850590    5.215390
  S      0.929920   11.776080    7.957440
  C      0.211530   12.934220    6.816110
  C     -0.517730   12.304410    5.816240
  O      1.751780    4.647460    7.102070
  O     -1.985920    7.016330    3.733570
  C      1.929770    5.028170    8.459130
  C      2.448320    3.816090    9.218590
  C     -3.262120    7.006230    4.371550
  C     -3.792710    5.602420    4.627070
  C     -1.654770   10.018530    3.978970
  C     -3.058970   10.564770    4.226770
  C      2.964850    2.418710    5.655410
  C      4.166580    3.277930    5.271880
  H      6.358380   -3.613780   -1.361400
  H      6.765490   -3.316170    3.599670
  H      2.054540   -0.965350    0.111000
  H     -0.407200   16.837690    2.369830
  H      1.559320   19.508190    6.091680
  H      1.014460   14.445930    7.998330
  H      3.448970    0.164120    3.590720
  H     -1.016100   12.853860    5.040380
  H      2.653710    5.847780    8.530920
  H      0.974860    5.355750    8.883960
  H      3.411560    3.505100    8.823590
  H      2.565570    4.073970   10.266750
  H      1.748070    2.988760    9.135490
  H     -3.205480    7.561710    5.317650
  H     -3.915750    7.538580    3.677510
  H     -3.826300    5.039960    3.697790
  H     -4.795580    5.666570    5.039940
  H     -3.157250    5.072500    5.333830
  H     -1.097510   10.722490    3.352080
  H     -1.699600    9.057770    3.468220
  H     -3.616370    9.912790    4.894440
  H     -3.015850   11.555630    4.670720
  H     -3.591630   10.632860    3.282690
  H      2.565410    2.746070    6.612750
  H      3.255610    1.368180    5.732310
  H      3.880340    4.325910    5.238740
  H      4.957860    3.156170    6.006040
  H      4.548960    2.989500    4.295120

 Total Charge           Charge          ....    0
 Multiplicity           Mult            ....    1
 Number of Electrons    NEL             ....  514
 Basis Dimension        Dim             .... 1136

ORBITAL ENERGIES
----------------

  NO   OCC          E(Eh)            E(eV)
   0   2.0000     -88.994633     -2421.6671
   1   2.0000     -88.991815     -2421.5904
   2   2.0000     -88.990036     -2421.5420
   3   2.0000     -88.985785     -2421.4263
   4   2.0000     -24.835512      -675.8086
   5   2.0000     -24.833664      -675.7583
   6   2.0000     -24.832545      -675.7279
   7   2.0000     -24.832233      -675.7194
   8   2.0000     -19.308834      -525.4201
   9   2.0000     -19.293861      -525.0127
  10   2.0000     -19.262717      -524.1652
  11   2.0000     -19.252016      -523.8740
  12   2.0000     -14.519844      -395.1050
  13   2.0000     -14.516094      -395.0030
  14   2.0000     -14.452839      -393.2818
  15   2.0000     -14.452347      -393.2684
  16   2.0000     -14.451077      -393.2338
  17   2.0000     -14.450997      -393.2316
  18   2.0000     -10.421328      -283.5787
  19   2.0000     -10.420801      -283.5644
  20   2.0000     -10.418967      -283.5145
  21   2.0000     -10.418092      -283.4907
  22   2.0000     -10.412231      -283.3312
  23   2.0000     -10.402304      -283.0611
  24   2.0000     -10.400556      -283.0135
  25   2.0000     -10.382759      -282.5292
  26   2.0000     -10.381723      -282.5010
  27   2.0000     -10.381537      -282.4960
  28   2.0000     -10.379535      -282.4415
  29   2.0000     -10.378098      -282.4024
  30   2.0000     -10.377281      -282.3802
  31   2.0000     -10.370385      -282.1925
  32   2.0000     -10.369652      -282.1726
  33   2.0000     -10.365766      -282.0668
  34   2.0000     -10.363786      -282.0130
  35   2.0000     -10.361025      -281.9378
  36   2.0000     -10.357813      -281.8504
  37   2.0000     -10.354818      -281.7689
  38   2.0000     -10.354434      -281.7585
  39   2.0000     -10.353744      -281.7397
  40   2.0000     -10.353731      -281.7393
  41   2.0000     -10.353678      -281.7379
  42   2.0000     -10.353071      -281.7214
  43   2.0000     -10.352573      -281.7078
  44   2.0000     -10.352241      -281.6988
  45   2.0000     -10.352098      -281.6949
  46   2.0000     -10.352045      -281.6935
  47   2.0000     -10.351804      -281.6869
  48   2.0000     -10.350906      -281.6625
  49   2.0000     -10.350848      -281.6609
  50   2.0000     -10.350110      -281.6408
  51   2.0000     -10.349294      -281.6186
  52   2.0000     -10.347485      -281.5694
  53   2.0000     -10.344633      -281.4918
  54   2.0000     -10.344343      -281.4839
  55   2.0000     -10.343746      -281.4676
  56   2.0000     -10.343317      -281.4560
  57   2.0000     -10.342299      -281.4283
  58   2.0000     -10.341677      -281.4113
  59   2.0000     -10.341430      -281.4046
  60   2.0000     -10.340259      -281.3727
  61   2.0000     -10.338183      -281.3163
  62   2.0000     -10.335762      -281.2504
  63   2.0000     -10.335526      -281.2440
  64   2.0000     -10.333735      -281.1952
  65   2.0000     -10.327905      -281.0366
  66   2.0000     -10.312296      -280.6118
  67   2.0000     -10.307697      -280.4867
  68   2.0000     -10.304755      -280.4066
  69   2.0000     -10.301859      -280.3278
  70   2.0000      -8.108060      -220.6315
  71   2.0000      -8.105234      -220.5546
  72   2.0000      -8.103143      -220.4977
  73   2.0000      -8.098990      -220.3847
  74   2.0000      -6.067882      -165.1155
  75   2.0000      -6.065099      -165.0397
  76   2.0000      -6.063855      -165.0059
  77   2.0000      -6.063568      -164.9981
  78   2.0000      -6.061039      -164.9292
  79   2.0000      -6.059589      -164.8898
  80   2.0000      -6.059315      -164.8823
  81   2.0000      -6.059194      -164.8791
  82   2.0000      -6.056747      -164.8125
  83   2.0000      -6.055164      -164.7694
  84   2.0000      -6.053699      -164.7295
  85   2.0000      -6.049769      -164.6226
  86   2.0000      -1.365079       -37.1457
  87   2.0000      -1.362812       -37.0840
  88   2.0000      -1.349992       -36.7352
  89   2.0000      -1.347798       -36.6754
  90   2.0000      -1.215079       -33.0640
  91   2.0000      -1.199005       -32.6266
  92   2.0000      -1.179783       -32.1035
  93   2.0000      -1.170703       -31.8565
  94   2.0000      -1.148014       -31.2391
  95   2.0000      -1.145194       -31.1623
  96   2.0000      -1.062441       -28.9105
  97   2.0000      -1.060703       -28.8632
  98   2.0000      -1.043655       -28.3993
  99   2.0000      -1.043331       -28.3905
 100   2.0000      -1.041072       -28.3290
 101   2.0000      -1.033784       -28.1307
 102   2.0000      -1.033381       -28.1197
 103   2.0000      -1.028771       -27.9943
 104   2.0000      -1.026139       -27.9227
 105   2.0000      -1.019381       -27.7388
 106   2.0000      -0.998203       -27.1625
 107   2.0000      -0.995135       -27.0790
 108   2.0000      -0.971551       -26.4372
 109   2.0000      -0.951681       -25.8966
 110   2.0000      -0.944620       -25.7044
 111   2.0000      -0.941152       -25.6100
 112   2.0000      -0.937796       -25.5187
 113   2.0000      -0.928977       -25.2787
 114   2.0000      -0.920837       -25.0572
 115   2.0000      -0.914911       -24.8960
 116   2.0000      -0.914355       -24.8809
 117   2.0000      -0.912425       -24.8283
 118   2.0000      -0.897968       -24.4350
 119   2.0000      -0.893391       -24.3104
 120   2.0000      -0.891724       -24.2650
 121   2.0000      -0.887597       -24.1528
 122   2.0000      -0.870916       -23.6988
 123   2.0000      -0.864391       -23.5213
 124   2.0000      -0.854884       -23.2626
 125   2.0000      -0.850850       -23.1528
 126   2.0000      -0.834553       -22.7093
 127   2.0000      -0.828821       -22.5534
 128   2.0000      -0.814103       -22.1529
 129   2.0000      -0.812558       -22.1108
 130   2.0000      -0.805868       -21.9288
 131   2.0000      -0.788467       -21.4553
 132   2.0000      -0.786156       -21.3924
 133   2.0000      -0.773612       -21.0510
 134   2.0000      -0.768825       -20.9208
 135   2.0000      -0.762576       -20.7508
 136   2.0000      -0.760135       -20.6843
 137   2.0000      -0.751682       -20.4543
 138   2.0000      -0.746383       -20.3101
 139   2.0000      -0.739608       -20.1258
 140   2.0000      -0.731629       -19.9086
 141   2.0000      -0.725931       -19.7536
 142   2.0000      -0.722383       -19.6570
 143   2.0000      -0.710637       -19.3374
 144   2.0000      -0.710256       -19.3270
 145   2.0000      -0.705005       -19.1842
 146   2.0000      -0.698947       -19.0193
 147   2.0000      -0.685058       -18.6414
 148   2.0000      -0.684213       -18.6184
 149   2.0000      -0.682975       -18.5847
 150   2.0000      -0.680779       -18.5249
 151   2.0000      -0.678259       -18.4564
 152   2.0000      -0.675469       -18.3804
 153   2.0000      -0.656411       -17.8618
 154   2.0000      -0.652397       -17.7526
 155   2.0000      -0.648691       -17.6518
 156   2.0000      -0.647023       -17.6064
 157   2.0000      -0.642438       -17.4816
 158   2.0000      -0.639223       -17.3941
 159   2.0000      -0.637426       -17.3452
 160   2.0000      -0.631797       -17.1921
 161   2.0000      -0.629612       -17.1326
 162   2.0000      -0.626658       -17.0522
 163   2.0000      -0.625443       -17.0192
 164   2.0000      -0.623191       -16.9579
 165   2.0000      -0.622329       -16.9344
 166   2.0000      -0.618056       -16.8182
 167   2.0000      -0.615490       -16.7483
 168   2.0000      -0.604542       -16.4504
 169   2.0000      -0.602581       -16.3971
 170   2.0000      -0.594281       -16.1712
 171   2.0000      -0.591831       -16.1045
 172   2.0000      -0.589066       -16.0293
 173   2.0000      -0.586151       -15.9500
 174   2.0000      -0.585710       -15.9380
 175   2.0000      -0.584355       -15.9011
 176   2.0000      -0.582287       -15.8448
 177   2.0000      -0.581881       -15.8338
 178   2.0000      -0.578159       -15.7325
 179   2.0000      -0.576678       -15.6922
 180   2.0000      -0.573032       -15.5930
 181   2.0000      -0.571240       -15.5442
 182   2.0000      -0.569489       -15.4966
 183   2.0000      -0.566838       -15.4244
 184   2.0000      -0.561883       -15.2896
 185   2.0000      -0.558660       -15.2019
 186   2.0000      -0.556079       -15.1317
 187   2.0000      -0.551619       -15.0103
 188   2.0000      -0.548177       -14.9166
 189   2.0000      -0.544300       -14.8112
 190   2.0000      -0.540606       -14.7106
 191   2.0000      -0.538105       -14.6426
 192   2.0000      -0.535359       -14.5679
 193   2.0000      -0.532820       -14.4988
 194   2.0000      -0.531740       -14.4694
 195   2.0000      -0.530375       -14.4322
 196   2.0000      -0.528710       -14.3869
 197   2.0000      -0.527122       -14.3437
 198   2.0000      -0.526483       -14.3263
 199   2.0000      -0.522248       -14.2111
 200   2.0000      -0.521064       -14.1789
 201   2.0000      -0.518870       -14.1192
 202   2.0000      -0.517017       -14.0687
 203   2.0000      -0.515054       -14.0153
 204   2.0000      -0.509642       -13.8681
 205   2.0000      -0.508514       -13.8374
 206   2.0000      -0.507528       -13.8105
 207   2.0000      -0.503425       -13.6989
 208   2.0000      -0.500891       -13.6299
 209   2.0000      -0.496340       -13.5061
 210   2.0000      -0.495094       -13.4722
 211   2.0000      -0.493162       -13.4196
 212   2.0000      -0.492608       -13.4046
 213   2.0000      -0.490883       -13.3576
 214   2.0000      -0.490378       -13.3439
 215   2.0000      -0.487224       -13.2580
 216   2.0000      -0.484949       -13.1961
 217   2.0000      -0.484674       -13.1886
 218   2.0000      -0.482571       -13.1314
 219   2.0000      -0.479536       -13.0488
 220   2.0000      -0.479242       -13.0408
 221   2.0000      -0.478582       -13.0229
 222   2.0000      -0.477386       -12.9903
 223   2.0000      -0.472919       -12.8688
 224   2.0000      -0.470608       -12.8059
 225   2.0000      -0.467049       -12.7091
 226   2.0000      -0.465509       -12.6671
 227   2.0000      -0.464037       -12.6271
 228   2.0000      -0.463234       -12.6052
 229   2.0000      -0.460751       -12.5377
 230   2.0000      -0.459828       -12.5125
 231   2.0000      -0.458163       -12.4673
 232   2.0000      -0.456333       -12.4174
 233   2.0000      -0.448802       -12.2125
 234   2.0000      -0.446285       -12.1440
 235   2.0000      -0.445361       -12.1189
 236   2.0000      -0.443667       -12.0728
 237   2.0000      -0.439918       -11.9708
 238   2.0000      -0.438455       -11.9310
 239   2.0000      -0.426687       -11.6107
 240   2.0000      -0.409902       -11.1540
 241   2.0000      -0.404402       -11.0043
 242   2.0000      -0.393399       -10.7049
 243   2.0000      -0.389033       -10.5861
 244   2.0000      -0.383420       -10.4334
 245   2.0000      -0.381569       -10.3830
 246   2.0000      -0.379596       -10.3293
 247   2.0000      -0.374534       -10.1916
 248   2.0000      -0.371084       -10.0977
 249   2.0000      -0.360846        -9.8191
 250   2.0000      -0.347762        -9.4631
 251   2.0000      -0.344457        -9.3731
 252   2.0000      -0.339962        -9.2508
 253   2.0000      -0.320256        -8.7146
 254   2.0000      -0.304198        -8.2777
 255   2.0000      -0.299065        -8.1380
 256   2.0000      -0.266825        -7.2607
 257   0.0000      -0.077422        -2.1068
 258   0.0000      -0.065291        -1.7767
 259   0.0000      -0.042972        -1.1693
 260   0.0000      -0.036446        -0.9918
 261   0.0000      -0.000917        -0.0249

MULLIKEN ATOMIC CHARGES
-----------------------
   0 C :    0.198216
   1 O :   -0.170040
   2 C :   -0.037250
   3 C :   -0.096556
   4 C :    0.241935
   5 C :    0.244626
   6 C :   -0.096617
   7 C :    0.009543
   8 C :    0.249446
   9 C :   -0.384810
  10 C :   -0.153970
  11 N :    0.138944
  12 C :   -0.120960
  13 N :    0.108669
  14 C :   -0.190551
  15 F :   -0.181930
  16 C :    0.115268
  17 F :   -0.184600
  18 C :    0.223736
  19 O :   -0.191811
  20 C :   -0.052081
  21 C :   -0.095941
  22 C :    0.242185
  23 C :    0.242867
  24 C :   -0.083826
  25 C :    0.027288
  26 C :    0.264043
  27 C :   -0.372663
  28 C :   -0.142313
  29 N :    0.115912
  30 C :   -0.132259
  31 N :    0.113018
  32 C :   -0.137611
  33 F :   -0.178955
  34 C :    0.071755
  35 F :   -0.183854
  36 C :   -0.155449
  37 C :    0.006097
  38 C :    0.124001
  39 C :   -0.094419
  40 S :    0.165679
  41 N :   -0.235647
  42 C :    0.089057
  43 C :   -0.121331
  44 C :    0.046968
  45 C :   -0.115158
  46 S :    0.175387
  47 C :    0.140329
  48 C :   -0.161151
  49 C :    0.072881
  50 C :    0.040200
  51 S :    0.108801
  52 C :   -0.114706
  53 C :    0.089194
  54 C :   -0.088050
  55 C :    0.135673
  56 N :   -0.237318
  57 S :    0.161579
  58 C :   -0.158419
  59 C :   -0.022297
  60 O :   -0.364231
  61 O :   -0.377889
  62 C :    0.082971
  63 C :   -0.044646
  64 C :    0.117282
  65 C :   -0.061998
  66 C :    0.058049
  67 C :   -0.055044
  68 C :    0.080780
  69 C :   -0.045507
  70 H :    0.044365
  71 H :    0.045467
  72 H :    0.045542
  73 H :    0.040715
  74 H :    0.046364
  75 H :    0.036186
  76 H :    0.022328
  77 H :    0.040010
  78 H :    0.062717
  79 H :    0.054999
  80 H :    0.050781
  81 H :    0.053712
  82 H :    0.058529
  83 H :    0.039080
  84 H :    0.050275
  85 H :    0.054718
  86 H :    0.046737
  87 H :    0.053971
  88 H :    0.056319
  89 H :    0.076460
  90 H :    0.035130
  91 H :    0.046108
  92 H :    0.050353
  93 H :    0.051020
  94 H :    0.047245
  95 H :    0.046329
  96 H :    0.045323
  97 H :    0.038693
Sum of atomic charges:   -0.0000000

LOEWDIN ATOMIC CHARGES
----------------------
   0 C :    0.092060
   1 O :   -0.146252
   2 C :   -0.051728
   3 C :   -0.006023
   4 C :    0.072552
   5 C :    0.077265
   6 C :   -0.023218
   7 C :   -0.017507
   8 C :    0.069272
   9 C :   -0.158102
  10 C :   -0.018266
  11 N :   -0.042343
  12 C :   -0.018354
  13 N :   -0.057422
  14 C :   -0.122573
  15 F :   -0.048651
  16 C :    0.059608
  17 F :   -0.050421
  18 C :    0.097810
  19 O :   -0.151624
  20 C :   -0.049650
  21 C :   -0.007855
  22 C :    0.074338
  23 C :    0.077548
  24 C :   -0.017562
  25 C :   -0.019336
  26 C :    0.079487
  27 C :   -0.147007
  28 C :   -0.021148
  29 N :   -0.049671
  30 C :   -0.014753
  31 N :   -0.052427
  32 C :   -0.118372
  33 F :   -0.046933
  34 C :    0.058759
  35 F :   -0.049629
  36 C :   -0.184287
  37 C :   -0.012594
  38 C :   -0.017993
  39 C :   -0.196860
  40 S :    0.427657
  41 N :    0.046295
  42 C :    0.010167
  43 C :   -0.223120
  44 C :   -0.075603
  45 C :   -0.150615
  46 S :    0.407247
  47 C :    0.040044
  48 C :   -0.176129
  49 C :   -0.065241
  50 C :    0.005951
  51 S :    0.388195
  52 C :   -0.225264
  53 C :    0.004435
  54 C :   -0.197636
  55 C :   -0.024360
  56 N :    0.042580
  57 S :    0.422961
  58 C :   -0.180603
  59 C :   -0.013414
  60 O :   -0.100204
  61 O :   -0.131474
  62 C :    0.070408
  63 C :   -0.064682
  64 C :    0.081142
  65 C :   -0.075416
  66 C :    0.037145
  67 C :   -0.062855
  68 C :    0.038822
  69 C :   -0.063149
  70 H :    0.056213
  71 H :    0.053029
  72 H :    0.049467
  73 H :    0.054691
  74 H :    0.054135
  75 H :    0.046259
  76 H :    0.037345
  77 H :    0.036501
  78 H :    0.013532
  79 H :    0.017839
  80 H :    0.031047
  81 H :    0.040338
  82 H :    0.034730
  83 H :    0.012445
  84 H :    0.025912
  85 H :    0.028778
  86 H :    0.037199
  87 H :    0.031530
  88 H :    0.033424
  89 H :    0.031900
  90 H :    0.025942
  91 H :    0.029293
  92 H :    0.036055
  93 H :    0.027360
  94 H :    0.031236
  95 H :    0.029778
  96 H :    0.032807
  97 H :    0.027790

  Mayer bond orders larger than 0.100000
B(  0-C ,  1-O ) :   2.2373 B(  0-C ,  2-C ) :   0.9278 B(  0-C , 14-C ) :   0.9657
B(  2-C ,  3-C ) :   1.3489 B(  2-C ,  7-C ) :   1.3453 B(  3-C ,  4-C ) :   1.3291
B(  3-C , 70-H ) :   1.0154 B(  4-C ,  5-C ) :   1.2978 B(  4-C , 17-F ) :   1.0989
B(  5-C ,  6-C ) :   1.3470 B(  5-C , 15-F ) :   1.1087 B(  6-C ,  7-C ) :   1.3392
B(  6-C , 71-H ) :   0.9929 B(  7-C ,  8-C ) :   1.0221 B(  8-C ,  9-C ) :   1.6299
B(  8-C , 14-C ) :   1.0869 B(  9-C , 10-C ) :   1.1600 B(  9-C , 12-C ) :   1.1151
B( 10-C , 11-N ) :   2.9972 B( 12-C , 13-N ) :   2.9900 B( 14-C , 16-C ) :   1.6152
B( 16-C , 36-C ) :   1.2282 B( 16-C , 72-H ) :   0.9252 B( 18-C , 19-O ) :   2.1343
B( 18-C , 20-C ) :   0.9656 B( 18-C , 32-C ) :   0.9634 B( 20-C , 21-C ) :   1.3433
B( 20-C , 25-C ) :   1.3465 B( 21-C , 22-C ) :   1.3314 B( 21-C , 73-H ) :   1.0140
B( 22-C , 23-C ) :   1.2927 B( 22-C , 35-F ) :   1.1006 B( 23-C , 24-C ) :   1.3510
B( 23-C , 33-F ) :   1.1144 B( 24-C , 25-C ) :   1.3344 B( 24-C , 74-H ) :   0.9884
B( 25-C , 26-C ) :   1.0139 B( 26-C , 27-C ) :   1.6453 B( 26-C , 32-C ) :   1.0929
B( 27-C , 28-C ) :   1.1281 B( 27-C , 30-C ) :   1.1284 B( 28-C , 29-N ) :   2.9852
B( 30-C , 31-N ) :   2.9794 B( 32-C , 34-C ) :   1.5878 B( 34-C , 58-C ) :   1.2669
B( 34-C , 75-H ) :   0.9191 B( 36-C , 37-C ) :   1.3797 B( 36-C , 40-S ) :   1.0710
B( 37-C , 38-C ) :   1.3299 B( 37-C , 76-H ) :   0.9867 B( 38-C , 39-C ) :   1.3418
B( 38-C , 41-N ) :   1.1342 B( 39-C , 40-S ) :   1.0608 B( 39-C , 43-C ) :   1.4662
B( 41-N , 42-C ) :   1.2010 B( 41-N , 68-C ) :   0.9292 B( 42-C , 43-C ) :   1.4397
B( 42-C , 44-C ) :   1.1230 B( 43-C , 46-S ) :   0.9730 B( 44-C , 45-C ) :   1.3504
B( 44-C , 47-C ) :   1.3181 B( 44-C , 49-C ) :   0.1073 B( 45-C , 46-S ) :   1.0518
B( 45-C , 50-C ) :   1.4162 B( 47-C , 48-C ) :   1.3925 B( 47-C , 60-O ) :   1.1696
B( 48-C , 49-C ) :   1.3022 B( 48-C , 51-S ) :   1.0043 B( 49-C , 50-C ) :   1.3090
B( 49-C , 53-C ) :   1.1381 B( 50-C , 61-O ) :   1.1528 B( 51-S , 52-C ) :   0.9823
B( 52-C , 53-C ) :   1.4313 B( 52-C , 54-C ) :   1.4466 B( 53-C , 56-N ) :   1.2058
B( 54-C , 55-C ) :   1.3362 B( 54-C , 57-S ) :   1.0652 B( 55-C , 56-N ) :   1.1310
B( 55-C , 59-C ) :   1.2653 B( 56-N , 66-C ) :   0.9149 B( 57-S , 58-C ) :   1.0616
B( 58-C , 59-C ) :   1.4120 B( 59-C , 77-H ) :   0.9771 B( 60-O , 62-C ) :   0.9039
B( 61-O , 64-C ) :   0.8980 B( 62-C , 63-C ) :   1.0945 B( 62-C , 78-H ) :   0.9465
B( 62-C , 79-H ) :   0.9523 B( 63-C , 80-H ) :   0.9679 B( 63-C , 81-H ) :   0.9629
B( 63-C , 82-H ) :   0.9673 B( 64-C , 65-C ) :   1.0985 B( 64-C , 83-H ) :   0.9495
B( 64-C , 84-H ) :   0.9612 B( 65-C , 85-H ) :   0.9655 B( 65-C , 86-H ) :   0.9629
B( 65-C , 87-H ) :   0.9674 B( 66-C , 67-C ) :   1.0941 B( 66-C , 88-H ) :   0.9513
B( 66-C , 89-H ) :   0.9368 B( 67-C , 90-H ) :   0.9676 B( 67-C , 91-H ) :   0.9700
B( 67-C , 92-H ) :   0.9691 B( 68-C , 69-C ) :   1.0916 B( 68-C , 93-H ) :   0.9396
B( 68-C , 94-H ) :   0.9502 B( 69-C , 95-H ) :   0.9691 B( 69-C , 96-H ) :   0.9721
B( 69-C , 97-H ) :   0.9698

-----------------------------------------------------------------------------
         ABSORPTION SPECTRUM VIA TRANSITION ELECTRIC DIPOLE MOMENTS
-----------------------------------------------------------------------------
State   Energy  Wavelength   fosc         T2         TX        TY        TZ
        (cm-1)    (nm)                  (au**2)     (au)      (au)      (au)
-----------------------------------------------------------------------------
   0   19233.8    519.9   2.721244164  46.57759   1.01457  -6.52435  -1.72660
   1   24163.0    413.9   0.399039705   5.43676   1.29106   1.84860   0.59381
   2   27277.5    366.6   0.409780466   4.94563  -1.23059   1.54776  -1.01771
   3   28414.2    351.9   0.035009693   0.40563  -0.63399   0.01335   0.05918
   4   28872.1    346.4   0.082538906   0.94114   0.27136  -0.79070  -0.49224
   5   29699.1    336.7   0.051684111   0.57291  -0.08716  -0.73255   0.16939
   6   32455.2    308.1   0.033945911   0.34433   0.16762  -0.02952  -0.56157
   7   32715.7    305.7   0.003362699   0.03384  -0.17909   0.01864  -0.03764
   8   34006.6    294.1   0.074895663   0.72505  -0.55204   0.38483   0.52174
   9   35082.7    285.0   0.081513316   0.76491  -0.69807   0.50549  -0.14860
  10   36549.5    273.6   0.969293114   8.73070   1.20796   0.13679  -2.69311
  11   37134.2    269.3   0.040317751   0.35744   0.22667  -0.37329  -0.40831
  12   37290.3    268.2   0.187388992   1.65434  -0.40513   0.76586  -0.95062
  13   37929.3    263.6   0.053650203   0.46566  -0.42294  -0.07512   0.53023
  14   38444.3    260.1   0.079448902   0.68035  -0.31325   0.20538   0.73488
  15   38783.6    257.8   0.457757808   3.88564  -1.16850   0.78883  -1.37767
  16   39587.9    252.6   0.413574102   3.43927   0.38355  -1.10077  -1.44239
  17   39821.0    251.1   0.146330780   1.20976  -0.03019   0.37194   1.03465

Dispersion correction           -0.063005758
FINAL SINGLE POINT ENERGY     -4616.238153069615

DIPOLE MOMENT
-------------
                                X             Y             Z
Electronic contribution:     34.94136      14.64668     -26.89792
Nuclear contribution   :    -35.98907     -14.93490      26.09426
                        -----------------------------------------
Total Dipole Moment    :     -1.04770      -0.28822      -0.80366
                        -----------------------------------------
Magnitude (a.u.)       :      1.35152
Magnitude (Debye)      :      3.43530

Rotational constants in cm-1:     0.001899     0.000249     0.000247
Rotational constants in MHz :    56.929655     7.460363     7.404979

                             ****ORCA TERMINATED NORMALLY****
TOTAL RUN TIME: 0 days 0 hours 20 minutes 43 seconds 933 msec
