                         Program Version 4.2.0 -  RELEASE  -
|  1> # ORCA input file
|  2> # SCF done       -193.521828398206          0.000990932453
|  3> ! wb97x-d3 def2-SVP def2/J RIJCOSX Grid4 TightSCF
|  4> %maxcore 5000
|  5> %tddft
|  6>     Mode sTDDFT
|  7>     Ethresh 5.0
|  8>     maxcore 5000
|  9> end
| 10>
| 11> %pal
| 12>   nprocs 6
| 13>   end
| 14> * xyz 0 1
| 15>    C        1.24056        -2.88169        -2.20954
| 16>    O        1.77346        -3.40585        -1.25457
| 17>    C       -0.07103        -3.18066        -2.81562
| 18>    C       -1.04980        -4.10229        -2.39720
| 19>    C       -2.24777        -4.17647        -3.16607
| 20>    C       -2.40960        -3.33915        -4.29168
| 21>    C       -1.43924        -2.45609        -4.68761
| 22>    C       -0.25586        -2.37903        -3.94254
| 23>    C        0.94765        -1.58338        -4.16500
| 24>    C        1.33457        -1.04018        -5.36322
| 25>    C        2.64877        -0.59577        -5.61918
| 26>    N        3.71997        -0.28168        -5.88833
| 27>    C        0.50761        -0.93847        -6.49799
| 28>    N       -0.12627        -0.78850        -7.44374
| 29>    C        1.77751        -1.73813        -2.99254
| 30>    C        2.81383        -1.00677        -2.49903
| 31>    C        3.22962         0.29665        -2.84503
| 32>    S        2.12385         1.45432        -3.58618
| 33>    C        3.37197         2.64048        -3.64787
| 34>    C        4.56038         2.16014        -3.08270
| 35>    C        4.48293         0.84740        -2.60819
| 36>    C        5.64358         0.09881        -2.04595
| 37>    C        6.27518        -0.79171        -3.11885
| 38>    S        5.86877         3.31894        -3.14059
| 39>    C        4.81513         4.43002        -3.94079
| 40>    C        3.51963         3.93975        -4.13651
| 41>    N        2.75713         4.86234        -4.80688
| 42>    C        1.62096         4.36193        -5.55363
| 43>    C        2.07495         3.56572        -6.77678
| 44>    C        3.56346         5.96389        -5.05418
| 45>    C        4.86392         5.69931        -4.53583
| 46>    C        5.94427         6.58666        -4.73609
| 47>    N        7.20326         6.45581        -4.34889
| 48>    S        8.04517         7.72078        -4.90672
| 49>    N        6.83445         8.48698        -5.66013
| 50>    C        5.72725         7.77938        -5.50149
| 51>    C        4.41459         8.08977        -5.92053
| 52>    C        3.31001         7.23143        -5.63992
| 53>    N        2.15164         7.87796        -6.02080
| 54>    C        0.77225         7.61142        -5.68124
| 55>    C       -0.05249         7.20584        -6.90331
| 56>    C        2.49890         9.08746        -6.56214
| 57>    C        3.89127         9.23838        -6.52627
| 58>    S        4.45098        10.74561        -7.15972
| 59>    C        2.78397        11.19541        -7.46426
| 60>    C        1.85377        10.21063        -7.08921
| 61>    S        0.23294        10.71058        -7.40234
| 62>    C        0.81488        12.24568        -8.04856
| 63>    C        2.21569        12.34297        -8.00036
| 64>    C        3.03441        13.48544        -8.50583
| 65>    C        3.29300        13.34416       -10.00830
| 66>    C        0.00294        13.26110        -8.56510
| 67>    C       -1.35897        13.34594        -8.71053
| 68>    C       -2.07325        14.46890        -9.28124
| 69>    C       -1.54209        15.63487        -9.77177
| 70>    C       -2.29742        16.69299       -10.32005
| 71>    N       -2.83601        17.59661       -10.78054
| 72>    C       -0.17174        15.96679        -9.81005
| 73>    N        0.91978        16.32055        -9.87961
| 74>    C       -3.49695        14.13909        -9.24215
| 75>    C       -4.61097        14.87399        -9.66859
| 76>    C       -5.86014        14.33144        -9.51231
| 77>    C       -6.05882        13.05900        -8.93529
| 78>    C       -4.93413        12.30034        -8.49844
| 79>    C       -3.66169        12.87782        -8.67181
| 80>    C       -2.34081        12.33015        -8.32005
| 81>    O       -2.10631        11.24782        -7.80330
| 82>    C       -3.24402        -5.09469        -2.77548
| 83>    C       -3.06327        -5.89738        -1.68275
| 84>    C       -1.88103        -5.81932        -0.92875
| 85>    C       -0.89216        -4.94025        -1.27442
| 86>    C       -5.13798        11.03007        -7.92120
| 87>    C       -6.40413        10.53292        -7.78242
| 88>    C       -7.51554        11.27632        -8.21185
| 89>    C       -7.34796        12.51078        -8.77571
| 90>    H       -3.33138        -3.40822        -4.85138
| 91>    H       -1.58981        -1.82611        -5.54937
| 92>    H        3.35127        -1.47162        -1.67734
| 93>    H        6.38231         0.81882        -1.68886
| 94>    H        5.32173        -0.51777        -1.20405
| 95>    H        6.60399        -0.18964        -3.96180
| 96>    H        7.13255        -1.31910        -2.70935
| 97>    H        5.55378        -1.52001        -3.48165
| 98>    H        1.05280         3.71352        -4.87968
| 99>    H        0.98243         5.17587        -5.87257
|100>    H        2.65213         4.19908        -7.44742
|101>    H        2.69309         2.72034        -6.48395
|102>    H        1.20777         3.18690        -7.31076
|103>    H        0.74243         6.85917        -4.89139
|104>    H        0.34944         8.53566        -5.27201
|105>    H        0.43251         6.41400        -7.47005
|106>    H       -1.03516         6.86602        -6.58819
|107>    H       -0.18383         8.05995        -7.56174
|108>    H        2.54420        14.44017        -8.31110
|109>    H        3.99042        13.47813        -7.97851
|110>    H        2.35704        13.34902       -10.56184
|111>    H        3.90231        14.17320       -10.35613
|112>    H        3.81563        12.41334       -10.21564
|113>    H        0.56608        14.11683        -8.91103
|114>    H       -4.49634        15.84851       -10.11309
|115>    H       -6.72797        14.88695        -9.83772
|116>    H       -4.15205        -5.15437        -3.35808
|117>    H       -3.83064        -6.59976        -1.39235
|118>    H       -1.75961        -6.46163        -0.06908
|119>    H        0.01952        -4.87003        -0.70245
|120>    H       -4.27757        10.46742        -7.59523
|121>    H       -6.55925         9.56017        -7.33981
|122>    H       -8.50654        10.86382        -8.09245
|123>    H       -8.20063        13.08575        -9.10684
|124> *
|125>
|126>                          ****END OF INPUT****

CARTESIAN COORDINATES (ANGSTROEM)
---------------------------------
  C      1.240560   -2.881690   -2.209540
  O      1.773460   -3.405850   -1.254570
  C     -0.071030   -3.180660   -2.815620
  C     -1.049800   -4.102290   -2.397200
  C     -2.247770   -4.176470   -3.166070
  C     -2.409600   -3.339150   -4.291680
  C     -1.439240   -2.456090   -4.687610
  C     -0.255860   -2.379030   -3.942540
  C      0.947650   -1.583380   -4.165000
  C      1.334570   -1.040180   -5.363220
  C      2.648770   -0.595770   -5.619180
  N      3.719970   -0.281680   -5.888330
  C      0.507610   -0.938470   -6.497990
  N     -0.126270   -0.788500   -7.443740
  C      1.777510   -1.738130   -2.992540
  C      2.813830   -1.006770   -2.499030
  C      3.229620    0.296650   -2.845030
  S      2.123850    1.454320   -3.586180
  C      3.371970    2.640480   -3.647870
  C      4.560380    2.160140   -3.082700
  C      4.482930    0.847400   -2.608190
  C      5.643580    0.098810   -2.045950
  C      6.275180   -0.791710   -3.118850
  S      5.868770    3.318940   -3.140590
  C      4.815130    4.430020   -3.940790
  C      3.519630    3.939750   -4.136510
  N      2.757130    4.862340   -4.806880
  C      1.620960    4.361930   -5.553630
  C      2.074950    3.565720   -6.776780
  C      3.563460    5.963890   -5.054180
  C      4.863920    5.699310   -4.535830
  C      5.944270    6.586660   -4.736090
  N      7.203260    6.455810   -4.348890
  S      8.045170    7.720780   -4.906720
  N      6.834450    8.486980   -5.660130
  C      5.727250    7.779380   -5.501490
  C      4.414590    8.089770   -5.920530
  C      3.310010    7.231430   -5.639920
  N      2.151640    7.877960   -6.020800
  C      0.772250    7.611420   -5.681240
  C     -0.052490    7.205840   -6.903310
  C      2.498900    9.087460   -6.562140
  C      3.891270    9.238380   -6.526270
  S      4.450980   10.745610   -7.159720
  C      2.783970   11.195410   -7.464260
  C      1.853770   10.210630   -7.089210
  S      0.232940   10.710580   -7.402340
  C      0.814880   12.245680   -8.048560
  C      2.215690   12.342970   -8.000360
  C      3.034410   13.485440   -8.505830
  C      3.293000   13.344160  -10.008300
  C      0.002940   13.261100   -8.565100
  C     -1.358970   13.345940   -8.710530
  C     -2.073250   14.468900   -9.281240
  C     -1.542090   15.634870   -9.771770
  C     -2.297420   16.692990  -10.320050
  N     -2.836010   17.596610  -10.780540
  C     -0.171740   15.966790   -9.810050
  N      0.919780   16.320550   -9.879610
  C     -3.496950   14.139090   -9.242150
  C     -4.610970   14.873990   -9.668590
  C     -5.860140   14.331440   -9.512310
  C     -6.058820   13.059000   -8.935290
  C     -4.934130   12.300340   -8.498440
  C     -3.661690   12.877820   -8.671810
  C     -2.340810   12.330150   -8.320050
  O     -2.106310   11.247820   -7.803300
  C     -3.244020   -5.094690   -2.775480
  C     -3.063270   -5.897380   -1.682750
  C     -1.881030   -5.819320   -0.928750
  C     -0.892160   -4.940250   -1.274420
  C     -5.137980   11.030070   -7.921200
  C     -6.404130   10.532920   -7.782420
  C     -7.515540   11.276320   -8.211850
  C     -7.347960   12.510780   -8.775710
  H     -3.331380   -3.408220   -4.851380
  H     -1.589810   -1.826110   -5.549370
  H      3.351270   -1.471620   -1.677340
  H      6.382310    0.818820   -1.688860
  H      5.321730   -0.517770   -1.204050
  H      6.603990   -0.189640   -3.961800
  H      7.132550   -1.319100   -2.709350
  H      5.553780   -1.520010   -3.481650
  H      1.052800    3.713520   -4.879680
  H      0.982430    5.175870   -5.872570
  H      2.652130    4.199080   -7.447420
  H      2.693090    2.720340   -6.483950
  H      1.207770    3.186900   -7.310760
  H      0.742430    6.859170   -4.891390
  H      0.349440    8.535660   -5.272010
  H      0.432510    6.414000   -7.470050
  H     -1.035160    6.866020   -6.588190
  H     -0.183830    8.059950   -7.561740
  H      2.544200   14.440170   -8.311100
  H      3.990420   13.478130   -7.978510
  H      2.357040   13.349020  -10.561840
  H      3.902310   14.173200  -10.356130
  H      3.815630   12.413340  -10.215640
  H      0.566080   14.116830   -8.911030
  H     -4.496340   15.848510  -10.113090
  H     -6.727970   14.886950   -9.837720
  H     -4.152050   -5.154370   -3.358080
  H     -3.830640   -6.599760   -1.392350
  H     -1.759610   -6.461630   -0.069080
  H      0.019520   -4.870030   -0.702450
  H     -4.277570   10.467420   -7.595230
  H     -6.559250    9.560170   -7.339810
  H     -8.506540   10.863820   -8.092450
  H     -8.200630   13.085750   -9.106840

 Total Charge           Charge          ....    0
 Multiplicity           Mult            ....    1
 Number of Electrons    NEL             ....  546
 Basis Dimension        Dim             .... 1240

ORBITAL ENERGIES
----------------

  NO   OCC          E(Eh)            E(eV)
   0   2.0000     -89.026811     -2422.5427
   1   2.0000     -88.993993     -2421.6497
   2   2.0000     -88.987744     -2421.4796
   3   2.0000     -88.987671     -2421.4776
   4   2.0000     -88.984304     -2421.3860
   5   2.0000     -19.256128      -523.9859
   6   2.0000     -19.251098      -523.8490
   7   2.0000     -14.520627      -395.1263
   8   2.0000     -14.517855      -395.0509
   9   2.0000     -14.465548      -393.6276
  10   2.0000     -14.464957      -393.6115
  11   2.0000     -14.451482      -393.2448
  12   2.0000     -14.449872      -393.2010
  13   2.0000     -14.446498      -393.1092
  14   2.0000     -14.444166      -393.0457
  15   2.0000     -10.402464      -283.0654
  16   2.0000     -10.400067      -283.0002
  17   2.0000     -10.376700      -282.3644
  18   2.0000     -10.375479      -282.3311
  19   2.0000     -10.374570      -282.3064
  20   2.0000     -10.372546      -282.2513
  21   2.0000     -10.372410      -282.2476
  22   2.0000     -10.371781      -282.2305
  23   2.0000     -10.366379      -282.0835
  24   2.0000     -10.362879      -281.9883
  25   2.0000     -10.355697      -281.7928
  26   2.0000     -10.353537      -281.7341
  27   2.0000     -10.353286      -281.7272
  28   2.0000     -10.353021      -281.7200
  29   2.0000     -10.352738      -281.7123
  30   2.0000     -10.351555      -281.6801
  31   2.0000     -10.351144      -281.6690
  32   2.0000     -10.349802      -281.6324
  33   2.0000     -10.349487      -281.6239
  34   2.0000     -10.348602      -281.5998
  35   2.0000     -10.348083      -281.5857
  36   2.0000     -10.346245      -281.5357
  37   2.0000     -10.346106      -281.5319
  38   2.0000     -10.344786      -281.4959
  39   2.0000     -10.342272      -281.4275
  40   2.0000     -10.341088      -281.3953
  41   2.0000     -10.340705      -281.3849
  42   2.0000     -10.339497      -281.3520
  43   2.0000     -10.339347      -281.3479
  44   2.0000     -10.339244      -281.3451
  45   2.0000     -10.338672      -281.3296
  46   2.0000     -10.337176      -281.2889
  47   2.0000     -10.329611      -281.0830
  48   2.0000     -10.328923      -281.0643
  49   2.0000     -10.328445      -281.0513
  50   2.0000     -10.328067      -281.0410
  51   2.0000     -10.327694      -281.0308
  52   2.0000     -10.326922      -281.0098
  53   2.0000     -10.325859      -280.9809
  54   2.0000     -10.325680      -280.9760
  55   2.0000     -10.325284      -280.9653
  56   2.0000     -10.324580      -280.9461
  57   2.0000     -10.324455      -280.9427
  58   2.0000     -10.323121      -280.9064
  59   2.0000     -10.322186      -280.8809
  60   2.0000     -10.321287      -280.8565
  61   2.0000     -10.316454      -280.7250
  62   2.0000     -10.316084      -280.7149
  63   2.0000     -10.315356      -280.6951
  64   2.0000     -10.315341      -280.6947
  65   2.0000     -10.314812      -280.6803
  66   2.0000     -10.313468      -280.6437
  67   2.0000     -10.313343      -280.6403
  68   2.0000     -10.312009      -280.6040
  69   2.0000     -10.311874      -280.6004
  70   2.0000     -10.309685      -280.5408
  71   2.0000     -10.309602      -280.5385
  72   2.0000     -10.302723      -280.3514
  73   2.0000     -10.291635      -280.0496
  74   2.0000     -10.291130      -280.0359
  75   2.0000      -8.137976      -221.4456
  76   2.0000      -8.106367      -220.5855
  77   2.0000      -8.100316      -220.4208
  78   2.0000      -8.098481      -220.3709
  79   2.0000      -8.096978      -220.3300
  80   2.0000      -6.099772      -165.9832
  81   2.0000      -6.091892      -165.7688
  82   2.0000      -6.089672      -165.7084
  83   2.0000      -6.066338      -165.0735
  84   2.0000      -6.062167      -164.9599
  85   2.0000      -6.060386      -164.9115
  86   2.0000      -6.058563      -164.8619
  87   2.0000      -6.057990      -164.8463
  88   2.0000      -6.057107      -164.8223
  89   2.0000      -6.056351      -164.8017
  90   2.0000      -6.053873      -164.7343
  91   2.0000      -6.053034      -164.7114
  92   2.0000      -6.051500      -164.6697
  93   2.0000      -6.050253      -164.6357
  94   2.0000      -6.048059      -164.5761
  95   2.0000      -1.173039       -31.9200
  96   2.0000      -1.167952       -31.7816
  97   2.0000      -1.153242       -31.3813
  98   2.0000      -1.145648       -31.1747
  99   2.0000      -1.138495       -30.9800
 100   2.0000      -1.057909       -28.7872
 101   2.0000      -1.055075       -28.7101
 102   2.0000      -1.048897       -28.5419
 103   2.0000      -1.045896       -28.4603
 104   2.0000      -1.036094       -28.1935
 105   2.0000      -1.035953       -28.1897
 106   2.0000      -1.028921       -27.9984
 107   2.0000      -1.027973       -27.9726
 108   2.0000      -1.008691       -27.4479
 109   2.0000      -1.006511       -27.3886
 110   2.0000      -1.005105       -27.3503
 111   2.0000      -1.000442       -27.2234
 112   2.0000      -0.989459       -26.9245
 113   2.0000      -0.982127       -26.7250
 114   2.0000      -0.959322       -26.1045
 115   2.0000      -0.957678       -26.0597
 116   2.0000      -0.946716       -25.7614
 117   2.0000      -0.939465       -25.5642
 118   2.0000      -0.936662       -25.4879
 119   2.0000      -0.933935       -25.4137
 120   2.0000      -0.930500       -25.3202
 121   2.0000      -0.925262       -25.1777
 122   2.0000      -0.918449       -24.9923
 123   2.0000      -0.916443       -24.9377
 124   2.0000      -0.895132       -24.3578
 125   2.0000      -0.893864       -24.3233
 126   2.0000      -0.891900       -24.2698
 127   2.0000      -0.881145       -23.9772
 128   2.0000      -0.877126       -23.8678
 129   2.0000      -0.872812       -23.7504
 130   2.0000      -0.865936       -23.5633
 131   2.0000      -0.861061       -23.4307
 132   2.0000      -0.850311       -23.1381
 133   2.0000      -0.835251       -22.7283
 134   2.0000      -0.834182       -22.6992
 135   2.0000      -0.831486       -22.6259
 136   2.0000      -0.817698       -22.2507
 137   2.0000      -0.808183       -21.9918
 138   2.0000      -0.805162       -21.9096
 139   2.0000      -0.788440       -21.4546
 140   2.0000      -0.785121       -21.3642
 141   2.0000      -0.782440       -21.2913
 142   2.0000      -0.764822       -20.8119
 143   2.0000      -0.756377       -20.5821
 144   2.0000      -0.754091       -20.5199
 145   2.0000      -0.749873       -20.4051
 146   2.0000      -0.749304       -20.3896
 147   2.0000      -0.747698       -20.3459
 148   2.0000      -0.742273       -20.1983
 149   2.0000      -0.737132       -20.0584
 150   2.0000      -0.732631       -19.9359
 151   2.0000      -0.729011       -19.8374
 152   2.0000      -0.713199       -19.4071
 153   2.0000      -0.710846       -19.3431
 154   2.0000      -0.704793       -19.1784
 155   2.0000      -0.696252       -18.9460
 156   2.0000      -0.690479       -18.7889
 157   2.0000      -0.685867       -18.6634
 158   2.0000      -0.672024       -18.2867
 159   2.0000      -0.668620       -18.1941
 160   2.0000      -0.664067       -18.0702
 161   2.0000      -0.662039       -18.0150
 162   2.0000      -0.660547       -17.9744
 163   2.0000      -0.654007       -17.7964
 164   2.0000      -0.643636       -17.5142
 165   2.0000      -0.642668       -17.4879
 166   2.0000      -0.630798       -17.1649
 167   2.0000      -0.626889       -17.0585
 168   2.0000      -0.624226       -16.9861
 169   2.0000      -0.621822       -16.9206
 170   2.0000      -0.620190       -16.8762
 171   2.0000      -0.618909       -16.8414
 172   2.0000      -0.617040       -16.7905
 173   2.0000      -0.610218       -16.6049
 174   2.0000      -0.603000       -16.4085
 175   2.0000      -0.598037       -16.2734
 176   2.0000      -0.597478       -16.2582
 177   2.0000      -0.593416       -16.1477
 178   2.0000      -0.586933       -15.9713
 179   2.0000      -0.586543       -15.9606
 180   2.0000      -0.581389       -15.8204
 181   2.0000      -0.576835       -15.6965
 182   2.0000      -0.575917       -15.6715
 183   2.0000      -0.575062       -15.6482
 184   2.0000      -0.571413       -15.5489
 185   2.0000      -0.571054       -15.5392
 186   2.0000      -0.566596       -15.4178
 187   2.0000      -0.564919       -15.3722
 188   2.0000      -0.563031       -15.3209
 189   2.0000      -0.560697       -15.2573
 190   2.0000      -0.556226       -15.1357
 191   2.0000      -0.554783       -15.0964
 192   2.0000      -0.550756       -14.9868
 193   2.0000      -0.549966       -14.9653
 194   2.0000      -0.544134       -14.8066
 195   2.0000      -0.541949       -14.7472
 196   2.0000      -0.541350       -14.7309
 197   2.0000      -0.540610       -14.7107
 198   2.0000      -0.537966       -14.6388
 199   2.0000      -0.535658       -14.5760
 200   2.0000      -0.535154       -14.5623
 201   2.0000      -0.534332       -14.5399
 202   2.0000      -0.532330       -14.4854
 203   2.0000      -0.530392       -14.4327
 204   2.0000      -0.524996       -14.2859
 205   2.0000      -0.523697       -14.2505
 206   2.0000      -0.517709       -14.0876
 207   2.0000      -0.515051       -14.0152
 208   2.0000      -0.514411       -13.9978
 209   2.0000      -0.512585       -13.9482
 210   2.0000      -0.509150       -13.8547
 211   2.0000      -0.508711       -13.8427
 212   2.0000      -0.506703       -13.7881
 213   2.0000      -0.504811       -13.7366
 214   2.0000      -0.500268       -13.6130
 215   2.0000      -0.498933       -13.5767
 216   2.0000      -0.497366       -13.5340
 217   2.0000      -0.493930       -13.4405
 218   2.0000      -0.490218       -13.3395
 219   2.0000      -0.489104       -13.3092
 220   2.0000      -0.485983       -13.2243
 221   2.0000      -0.485064       -13.1993
 222   2.0000      -0.484302       -13.1785
 223   2.0000      -0.482790       -13.1374
 224   2.0000      -0.480877       -13.0853
 225   2.0000      -0.478980       -13.0337
 226   2.0000      -0.475033       -12.9263
 227   2.0000      -0.474592       -12.9143
 228   2.0000      -0.473786       -12.8924
 229   2.0000      -0.470578       -12.8051
 230   2.0000      -0.470007       -12.7895
 231   2.0000      -0.469204       -12.7677
 232   2.0000      -0.468619       -12.7518
 233   2.0000      -0.465042       -12.6544
 234   2.0000      -0.460894       -12.5416
 235   2.0000      -0.460506       -12.5310
 236   2.0000      -0.460380       -12.5276
 237   2.0000      -0.458829       -12.4854
 238   2.0000      -0.455663       -12.3992
 239   2.0000      -0.454766       -12.3748
 240   2.0000      -0.454161       -12.3583
 241   2.0000      -0.452425       -12.3111
 242   2.0000      -0.452028       -12.3003
 243   2.0000      -0.449905       -12.2425
 244   2.0000      -0.448809       -12.2127
 245   2.0000      -0.446302       -12.1445
 246   2.0000      -0.437559       -11.9066
 247   2.0000      -0.436365       -11.8741
 248   2.0000      -0.435693       -11.8558
 249   2.0000      -0.431048       -11.7294
 250   2.0000      -0.430068       -11.7027
 251   2.0000      -0.424967       -11.5639
 252   2.0000      -0.422366       -11.4932
 253   2.0000      -0.419547       -11.4164
 254   2.0000      -0.406191       -11.0530
 255   2.0000      -0.404111       -10.9964
 256   2.0000      -0.393722       -10.7137
 257   2.0000      -0.390374       -10.6226
 258   2.0000      -0.390007       -10.6126
 259   2.0000      -0.375334       -10.2134
 260   2.0000      -0.365531        -9.9466
 261   2.0000      -0.364914        -9.9298
 262   2.0000      -0.362706        -9.8697
 263   2.0000      -0.351754        -9.5717
 264   2.0000      -0.347294        -9.4504
 265   2.0000      -0.341179        -9.2840
 266   2.0000      -0.333304        -9.0697
 267   2.0000      -0.323442        -8.8013
 268   2.0000      -0.322308        -8.7704
 269   2.0000      -0.315597        -8.5878
 270   2.0000      -0.302141        -8.2217
 271   2.0000      -0.300297        -8.1715
 272   2.0000      -0.262898        -7.1538
 273   0.0000      -0.070284        -1.9125
 274   0.0000      -0.060851        -1.6558
 275   0.0000      -0.047114        -1.2820
 276   0.0000      -0.041859        -1.1390
 277   0.0000      -0.012946        -0.3523

MULLIKEN ATOMIC CHARGES
-----------------------
   0 C :    0.189547
   1 O :   -0.182634
   2 C :   -0.026268
   3 C :    0.004992
   4 C :    0.033097
   5 C :    0.005903
   6 C :   -0.028581
   7 C :   -0.022119
   8 C :    0.242007
   9 C :   -0.365230
  10 C :   -0.125014
  11 N :    0.119012
  12 C :   -0.117814
  13 N :    0.102439
  14 C :   -0.171260
  15 C :    0.032761
  16 C :   -0.166538
  17 S :    0.151315
  18 C :   -0.028440
  19 C :   -0.110676
  20 C :   -0.027871
  21 C :    0.012571
  22 C :   -0.017092
  23 S :    0.208641
  24 C :   -0.051900
  25 C :    0.028578
  26 N :   -0.244840
  27 C :    0.064055
  28 C :   -0.046229
  29 C :    0.095063
  30 C :   -0.107748
  31 C :    0.019348
  32 N :   -0.298910
  33 S :    0.477731
  34 N :   -0.299314
  35 C :    0.018471
  36 C :   -0.110923
  37 C :    0.099622
  38 N :   -0.244547
  39 C :    0.032335
  40 C :   -0.042178
  41 C :    0.037959
  42 C :   -0.054008
  43 S :    0.201493
  44 C :   -0.093867
  45 C :   -0.019693
  46 S :    0.183837
  47 C :   -0.106396
  48 C :   -0.085886
  49 C :    0.008226
  50 C :   -0.011925
  51 C :   -0.001420
  52 C :   -0.141875
  53 C :    0.301810
  54 C :   -0.391031
  55 C :   -0.130074
  56 N :    0.108465
  57 C :   -0.118736
  58 N :    0.091368
  59 C :   -0.017482
  60 C :   -0.020795
  61 C :    0.003751
  62 C :    0.030367
  63 C :    0.008668
  64 C :   -0.033352
  65 C :    0.219832
  66 O :   -0.219417
  67 C :   -0.023278
  68 C :    0.006487
  69 C :    0.006507
  70 C :   -0.024864
  71 C :   -0.024759
  72 C :    0.010113
  73 C :    0.005122
  74 C :   -0.022053
  75 H :    0.014604
  76 H :    0.026006
  77 H :    0.041395
  78 H :    0.037058
  79 H :    0.045474
  80 H :    0.048770
  81 H :    0.042678
  82 H :    0.041999
  83 H :    0.051666
  84 H :    0.014671
  85 H :    0.051650
  86 H :    0.063122
  87 H :    0.054949
  88 H :    0.061604
  89 H :    0.063872
  90 H :    0.050659
  91 H :    0.051824
  92 H :    0.054985
  93 H :    0.057939
  94 H :    0.039450
  95 H :    0.033040
  96 H :    0.054854
  97 H :    0.034741
  98 H :   -0.011650
  99 H :    0.025353
 100 H :    0.013538
 101 H :    0.006939
 102 H :    0.023100
 103 H :    0.023231
 104 H :    0.028274
 105 H :    0.021542
 106 H :    0.018748
 107 H :    0.021932
 108 H :    0.007531
Sum of atomic charges:   -0.0000000

LOEWDIN ATOMIC CHARGES
----------------------
   0 C :    0.095938
   1 O :   -0.151252
   2 C :   -0.036683
   3 C :   -0.006143
   4 C :   -0.014228
   5 C :    0.016732
   6 C :   -0.019471
   7 C :   -0.008200
   8 C :    0.066929
   9 C :   -0.153137
  10 C :   -0.027503
  11 N :   -0.057028
  12 C :   -0.015247
  13 N :   -0.060287
  14 C :   -0.114163
  15 C :    0.054791
  16 C :   -0.194606
  17 S :    0.436062
  18 C :   -0.186779
  19 C :   -0.195052
  20 C :   -0.010065
  21 C :   -0.032526
  22 C :   -0.044101
  23 S :    0.427148
  24 C :   -0.169820
  25 C :   -0.040323
  26 N :    0.028961
  27 C :    0.038025
  28 C :   -0.061640
  29 C :    0.011786
  30 C :   -0.077723
  31 C :   -0.053990
  32 N :   -0.287407
  33 S :    0.596764
  34 N :   -0.287643
  35 C :   -0.052175
  36 C :   -0.084408
  37 C :    0.016394
  38 N :    0.038673
  39 C :    0.036071
  40 C :   -0.068549
  41 C :   -0.045214
  42 C :   -0.166674
  43 S :    0.415855
  44 C :   -0.199249
  45 C :   -0.194407
  46 S :    0.472365
  47 C :   -0.197498
  48 C :   -0.010951
  49 C :   -0.034124
  50 C :   -0.044521
  51 C :    0.062179
  52 C :   -0.128122
  53 C :    0.083972
  54 C :   -0.152359
  55 C :   -0.014710
  56 N :   -0.058208
  57 C :   -0.011498
  58 N :   -0.061767
  59 C :   -0.010717
  60 C :   -0.014827
  61 C :    0.015213
  62 C :   -0.013121
  63 C :   -0.006207
  64 C :   -0.034570
  65 C :    0.097707
  66 O :   -0.174736
  67 C :   -0.014662
  68 C :   -0.016045
  69 C :   -0.015284
  70 C :   -0.003376
  71 C :   -0.005587
  72 C :   -0.017542
  73 C :   -0.016689
  74 C :   -0.013809
  75 H :    0.038098
  76 H :    0.040860
  77 H :    0.050768
  78 H :    0.032621
  79 H :    0.036869
  80 H :    0.034094
  81 H :    0.029249
  82 H :    0.028739
  83 H :    0.027230
  84 H :    0.026241
  85 H :    0.033263
  86 H :    0.033917
  87 H :    0.037719
  88 H :    0.030806
  89 H :    0.035763
  90 H :    0.028738
  91 H :    0.037466
  92 H :    0.025054
  93 H :    0.038689
  94 H :    0.034096
  95 H :    0.025975
  96 H :    0.035076
  97 H :    0.027395
  98 H :    0.047085
  99 H :    0.041957
 100 H :    0.038219
 101 H :    0.032976
 102 H :    0.034992
 103 H :    0.035648
 104 H :    0.038136
 105 H :    0.035329
 106 H :    0.034051
 107 H :    0.034567
 108 H :    0.033369

  Mayer bond orders larger than 0.100000
B(  0-C ,  1-O ) :   2.1665 B(  0-C ,  2-C ) :   0.9448 B(  0-C , 14-C ) :   0.9697
B(  2-C ,  3-C ) :   1.2610 B(  2-C ,  7-C ) :   1.4311 B(  3-C ,  4-C ) :   1.2515
B(  3-C , 70-C ) :   1.2739 B(  4-C ,  5-C ) :   1.2289 B(  4-C , 67-C ) :   1.2438
B(  5-C ,  6-C ) :   1.4949 B(  5-C , 75-H ) :   0.9944 B(  6-C ,  7-C ) :   1.2687
B(  6-C , 76-H ) :   0.9867 B(  7-C ,  8-C ) :   1.0201 B(  8-C ,  9-C ) :   1.6454
B(  8-C , 14-C ) :   1.0455 B(  9-C , 10-C ) :   1.1555 B(  9-C , 12-C ) :   1.1217
B( 10-C , 11-N ) :   2.9596 B( 12-C , 13-N ) :   2.9855 B( 14-C , 15-C ) :   1.6686
B( 15-C , 16-C ) :   1.1703 B( 15-C , 77-H ) :   0.9348 B( 16-C , 17-S ) :   1.0578
B( 16-C , 20-C ) :   1.4625 B( 17-S , 18-C ) :   1.0598 B( 18-C , 19-C ) :   1.4568
B( 18-C , 25-C ) :   1.3245 B( 19-C , 20-C ) :   1.3866 B( 19-C , 23-S ) :   1.0328
B( 20-C , 21-C ) :   1.0652 B( 21-C , 22-C ) :   1.0884 B( 21-C , 78-H ) :   0.9312
B( 21-C , 79-H ) :   0.9198 B( 22-C , 80-H ) :   0.9693 B( 22-C , 81-H ) :   0.9714
B( 22-C , 82-H ) :   0.9710 B( 23-S , 24-C ) :   1.0300 B( 24-C , 25-C ) :   1.4253
B( 24-C , 30-C ) :   1.3679 B( 25-C , 26-N ) :   1.1421 B( 26-N , 27-C ) :   0.9362
B( 26-N , 29-C ) :   1.1502 B( 27-C , 28-C ) :   1.0922 B( 27-C , 83-H ) :   0.9453
B( 27-C , 84-H ) :   0.9495 B( 28-C , 85-H ) :   0.9674 B( 28-C , 86-H ) :   0.9619
B( 28-C , 87-H ) :   0.9684 B( 29-C , 30-C ) :   1.4054 B( 29-C , 37-C ) :   1.1365
B( 30-C , 31-C ) :   1.1317 B( 31-C , 32-N ) :   1.6176 B( 31-C , 35-C ) :   1.1397
B( 32-N , 33-S ) :   1.2287 B( 32-N , 34-N ) :   0.1310 B( 33-S , 34-N ) :   1.2288
B( 34-N , 35-C ) :   1.6170 B( 35-C , 36-C ) :   1.1356 B( 36-C , 37-C ) :   1.3799
B( 36-C , 42-C ) :   1.3851 B( 37-C , 38-N ) :   1.1788 B( 38-N , 39-C ) :   0.9239
B( 38-N , 41-C ) :   1.1381 B( 39-C , 40-C ) :   1.0818 B( 39-C , 88-H ) :   0.9588
B( 39-C , 89-H ) :   0.9503 B( 40-C , 90-H ) :   0.9640 B( 40-C , 91-H ) :   0.9695
B( 40-C , 92-H ) :   0.9554 B( 41-C , 42-C ) :   1.4160 B( 41-C , 45-C ) :   1.3123
B( 42-C , 43-S ) :   1.0240 B( 43-S , 44-C ) :   1.0212 B( 44-C , 45-C ) :   1.4144
B( 44-C , 48-C ) :   1.4428 B( 45-C , 46-S ) :   1.0314 B( 46-S , 47-C ) :   1.0423
B( 47-C , 48-C ) :   1.3973 B( 47-C , 51-C ) :   1.3051 B( 48-C , 49-C ) :   1.0547
B( 49-C , 50-C ) :   1.0885 B( 49-C , 93-H ) :   0.9137 B( 49-C , 94-H ) :   0.9321
B( 50-C , 95-H ) :   0.9726 B( 50-C , 96-H ) :   0.9713 B( 50-C , 97-H ) :   0.9701
B( 51-C , 52-C ) :   1.5390 B( 51-C , 98-H ) :   0.9251 B( 52-C , 53-C ) :   1.0964
B( 52-C , 65-C ) :   0.9971 B( 53-C , 54-C ) :   1.6182 B( 53-C , 59-C ) :   0.9985
B( 54-C , 55-C ) :   1.1334 B( 54-C , 57-C ) :   1.1411 B( 55-C , 56-N ) :   2.9704
B( 57-C , 58-N ) :   2.9527 B( 59-C , 60-C ) :   1.2712 B( 59-C , 64-C ) :   1.4336
B( 60-C , 61-C ) :   1.4940 B( 60-C , 99-H ) :   0.9821 B( 61-C , 62-C ) :   1.2289
B( 61-C ,100-H ) :   0.9943 B( 62-C , 63-C ) :   1.2506 B( 62-C , 74-C ) :   1.2393
B( 63-C , 64-C ) :   1.2538 B( 63-C , 71-C ) :   1.2724 B( 64-C , 65-C ) :   0.9814
B( 65-C , 66-O ) :   2.0435 B( 67-C , 68-C ) :   1.5131 B( 67-C ,101-H ) :   0.9982
B( 68-C , 69-C ) :   1.2565 B( 68-C ,102-H ) :   0.9905 B( 69-C , 70-C ) :   1.4967
B( 69-C ,103-H ) :   0.9892 B( 70-C ,104-H ) :   0.9869 B( 71-C , 72-C ) :   1.4970
B( 71-C ,105-H ) :   0.9862 B( 72-C , 73-C ) :   1.2557 B( 72-C ,106-H ) :   0.9883
B( 73-C , 74-C ) :   1.5151 B( 73-C ,107-H ) :   0.9904 B( 74-C ,108-H ) :   0.9989

-----------------------------------------------------------------------------
         ABSORPTION SPECTRUM VIA TRANSITION ELECTRIC DIPOLE MOMENTS
-----------------------------------------------------------------------------
State   Energy  Wavelength   fosc         T2         TX        TY        TZ
        (cm-1)    (nm)                  (au**2)     (au)      (au)      (au)
-----------------------------------------------------------------------------
   0   19398.9    515.5   1.976505573  33.54254   0.90485  -5.51200   1.53024
   1   23901.8    418.4   0.745298029  10.26538  -2.84108   0.55327  -1.37389
   2   25469.0    392.6   0.278609156   3.60129   1.36056  -1.03438   0.82475
   3   27757.7    360.3   0.309342987   3.66887  -1.73704  -0.30357  -0.74792
   4   28988.3    345.0   0.491795155   5.58517  -2.32819  -0.39691  -0.08472
   5   29880.3    334.7   0.080739957   0.88957  -0.61306  -0.69694   0.16732
   6   31185.6    320.7   0.067618668   0.71382  -0.36174  -0.19944  -0.73702
   7   32400.1    308.6   0.098968959   1.00561  -0.76117  -0.62239   0.19715
   8   32769.1    305.2   0.016903546   0.16982   0.32857   0.14894   0.19919
   9   33084.9    302.3   0.157051036   1.56274  -0.07357  -0.87486   0.88992
  10   34330.2    291.3   0.095044304   0.91143  -0.70411  -0.41634  -0.49227
  11   34775.5    287.6   0.259932124   2.46072   0.11095   1.26164  -0.92556
  12   35233.4    283.8   0.211362148   1.97491   1.00859   0.77134  -0.60224
  13   35439.9    282.2   0.981238683   9.11502   0.83671   2.19477  -1.89682
  14   36322.7    275.3   1.410109712  12.78056  -3.17178  -1.56291   0.52697
  15   37345.8    267.8   0.225047198   1.98385  -1.37989  -0.24542   0.13967
  16   38126.4    262.3   0.021004805   0.18137   0.41843  -0.03830   0.06941
  17   38624.3    258.9   0.051714146   0.44078   0.49651   0.40948  -0.16306
  18   39273.8    254.6   0.030064969   0.25202   0.20536  -0.29774   0.34814
  19   39479.3    253.3   0.190245773   1.58643   0.38494   0.90116  -0.79131
  20   40273.4    248.3   0.027379990   0.22382  -0.24371   0.31192  -0.25908

Dispersion correction           -0.071970097
FINAL SINGLE POINT ENERGY     -4882.684346440785

DIPOLE MOMENT
-------------
                                X             Y             Z
Electronic contribution:     26.63611      21.66148       5.54511
Nuclear contribution   :    -29.26476     -24.13845      -3.69791
                        -----------------------------------------
Total Dipole Moment    :     -2.62866      -2.47698       1.84720
                        -----------------------------------------
Magnitude (a.u.)       :      4.05677
Magnitude (Debye)      :     10.31149

Rotational constants in cm-1:     0.001153     0.000319     0.000256
Rotational constants in MHz :    34.577333     9.558656     7.683828

                             ****ORCA TERMINATED NORMALLY****
TOTAL RUN TIME: 0 days 0 hours 12 minutes 50 seconds 856 msec
