                         Program Version 4.2.0 -  RELEASE  -
|  1> # ORCA input file
|  2> # SCF done       -209.648828343520          0.000512061406
|  3> ! wb97x-d3 def2-SVP def2/J RIJCOSX Grid4 TightSCF
|  4> %maxcore 5000
|  5> %tddft
|  6>     Mode sTDDFT
|  7>     Ethresh 5.0
|  8>     maxcore 5000
|  9> end
| 10>
| 11> %pal
| 12>   nprocs 6
| 13>   end
| 14> * xyz 0 1
| 15>    C        4.74001        -8.05251         6.13095
| 16>    O        4.95095        -7.19302         6.96696
| 17>    C        5.19723        -9.45695         6.19101
| 18>    C        5.93415       -10.07768         7.17936
| 19>    C        6.23916       -11.41835         7.00596
| 20>    C        5.81050       -12.10277         5.86873
| 21>    C        5.07041       -11.47722         4.87573
| 22>    C        4.76095       -10.13661         5.04145
| 23>    C        4.01168        -9.20278         4.19753
| 24>    C        3.45570        -9.51407         2.98324
| 25>    C        2.74455        -8.62692         2.14829
| 26>    N        2.15788        -7.97228         1.40837
| 27>    C        3.52587       -10.79021         2.38466
| 28>    N        3.54341       -11.80186         1.84278
| 29>    C        3.99274        -7.92538         4.87876
| 30>    F        6.11810       -13.39695         5.72720
| 31>    C        3.36634        -6.78476         4.43078
| 32>    F        6.95122       -12.06252         7.93840
| 33>    C        6.99177        12.63343        15.19802
| 34>    O        7.25768        11.54603        15.66932
| 35>    C        7.50917        13.92463        15.70360
| 36>    C        8.39210        14.13590        16.74387
| 37>    C        8.74723        15.44413        17.02864
| 38>    C        8.22305        16.49971        16.28226
| 39>    C        7.33223        16.28588        15.24088
| 40>    C        6.97114        14.97911        14.95084
| 41>    C        6.07119        14.41984        13.94146
| 42>    C        5.30087        15.16906        13.08987
| 43>    C        4.36946        14.68333        12.14677
| 44>    N        3.58163        14.39198        11.36286
| 45>    C        5.31040        16.58043        13.05241
| 46>    N        5.26869        17.72391        12.96246
| 47>    C        6.12630        12.97251        14.05281
| 48>    F        8.58749        17.75351        16.57418
| 49>    C        5.50036        12.12587        13.16710
| 50>    F        9.60275        15.69780        18.02667
| 51>    C        5.44241        10.72943        13.08367
| 52>    S        4.55932        10.07854        11.69320
| 53>    C        4.90652         8.49126        12.20456
| 54>    C        5.64762         8.45123        13.40125
| 55>    C        5.95388         9.70470        13.88430
| 56>    C        4.70334         7.17590        11.74364
| 57>    C        5.31247         6.28691        12.63495
| 58>    C        5.92764         7.02254        13.80241
| 59>    S        3.97065         6.38425        10.40897
| 60>    C        4.49695         4.83826        11.03867
| 61>    C        5.19170         4.96615        12.23655
| 62>    C        4.20977         3.65064        10.29750
| 63>    C        4.62914         2.36866        10.63796
| 64>    C        4.36252         1.23762         9.85988
| 65>    C        3.64746         1.25366         8.66515
| 66>    C        3.17376         2.54552         8.29255
| 67>    C        3.45740         3.70660         9.09212
| 68>    N        2.45447         2.86136         7.21776
| 69>    S        2.16516         4.44253         7.20983
| 70>    N        2.93746         4.81123         8.56839
| 71>    C        3.42038         0.09358         7.86290
| 72>    S        4.08913        -1.46793         8.29141
| 73>    C        3.41068        -2.15090         6.87739
| 74>    C        2.68130        -1.22570         6.12070
| 75>    C        2.70132         0.04312         6.67353
| 76>    C        3.40441        -3.39951         6.22482
| 77>    C        2.66167        -3.27543         5.03317
| 78>    C        2.12265        -1.87007         4.87186
| 79>    S        4.03204        -4.96571         6.49037
| 80>    C        3.29394        -5.50603         4.98813
| 81>    C        2.59124        -4.46508         4.35221
| 82>    F        5.34311         2.15916        11.75753
| 83>    F        4.85170         0.07310        10.32234
| 84>    C        5.15255         6.62530        15.07957
| 85>    C        7.43267         6.74566        13.93962
| 86>    C        2.70853        -1.14986         3.64145
| 87>    C        0.58185        -1.92811         4.88909
| 88>    C        5.56294         7.37623        16.33884
| 89>    C        8.19630         6.99066        12.64343
| 90>    C       -0.11089        -0.57409         4.81661
| 91>    C        2.28618        -1.72400         2.29600
| 92>    H        6.26290        -9.54383         8.05668
| 93>    H        4.76419       -12.05253         4.01773
| 94>    H        2.83509        -6.86569         3.49030
| 95>    H        8.79457        13.31506        17.31571
| 96>    H        6.95905        17.13741        14.69664
| 97>    H        4.96093        12.61342        12.36385
| 98>    H        6.53465         9.91618        14.76294
| 99>    H        5.59329         4.13185        12.77922
|100>    H        2.24218         0.92162         6.26188
|101>    H        2.06406        -4.63374         3.43013
|102>    H        4.08910         6.79665        14.89382
|103>    H        5.29341         5.55351        15.23401
|104>    H        7.83640         7.39463        14.71662
|105>    H        7.56770         5.70848        14.25185
|106>    H        2.42074        -0.09911         3.69691
|107>    H        3.79779        -1.19461         3.72061
|108>    H        0.25545        -2.55161         4.05572
|109>    H        0.28129        -2.43243         5.81111
|110>    H        5.42399         8.44662        16.21828
|111>    H        4.94501         7.04535        17.17048
|112>    H        6.60089         7.18415        16.59444
|113>    H        8.07902         8.02148        12.31653
|114>    H        9.25549         6.79914        12.79575
|115>    H        7.84042         6.33538        11.85164
|116>    H        0.13215        -0.05303         3.89491
|117>    H       -1.18840        -0.71930         4.84787
|118>    H        0.17087         0.05157         5.65868
|119>    H        1.20838        -1.68314         2.16658
|120>    H        2.74364        -1.14392         1.49772
|121>    H        2.61378        -2.75427         2.19260
|122> *
|123>
|124>                          ****END OF INPUT****

CARTESIAN COORDINATES (ANGSTROEM)
---------------------------------
  C      4.740010   -8.052510    6.130950
  O      4.950950   -7.193020    6.966960
  C      5.197230   -9.456950    6.191010
  C      5.934150  -10.077680    7.179360
  C      6.239160  -11.418350    7.005960
  C      5.810500  -12.102770    5.868730
  C      5.070410  -11.477220    4.875730
  C      4.760950  -10.136610    5.041450
  C      4.011680   -9.202780    4.197530
  C      3.455700   -9.514070    2.983240
  C      2.744550   -8.626920    2.148290
  N      2.157880   -7.972280    1.408370
  C      3.525870  -10.790210    2.384660
  N      3.543410  -11.801860    1.842780
  C      3.992740   -7.925380    4.878760
  F      6.118100  -13.396950    5.727200
  C      3.366340   -6.784760    4.430780
  F      6.951220  -12.062520    7.938400
  C      6.991770   12.633430   15.198020
  O      7.257680   11.546030   15.669320
  C      7.509170   13.924630   15.703600
  C      8.392100   14.135900   16.743870
  C      8.747230   15.444130   17.028640
  C      8.223050   16.499710   16.282260
  C      7.332230   16.285880   15.240880
  C      6.971140   14.979110   14.950840
  C      6.071190   14.419840   13.941460
  C      5.300870   15.169060   13.089870
  C      4.369460   14.683330   12.146770
  N      3.581630   14.391980   11.362860
  C      5.310400   16.580430   13.052410
  N      5.268690   17.723910   12.962460
  C      6.126300   12.972510   14.052810
  F      8.587490   17.753510   16.574180
  C      5.500360   12.125870   13.167100
  F      9.602750   15.697800   18.026670
  C      5.442410   10.729430   13.083670
  S      4.559320   10.078540   11.693200
  C      4.906520    8.491260   12.204560
  C      5.647620    8.451230   13.401250
  C      5.953880    9.704700   13.884300
  C      4.703340    7.175900   11.743640
  C      5.312470    6.286910   12.634950
  C      5.927640    7.022540   13.802410
  S      3.970650    6.384250   10.408970
  C      4.496950    4.838260   11.038670
  C      5.191700    4.966150   12.236550
  C      4.209770    3.650640   10.297500
  C      4.629140    2.368660   10.637960
  C      4.362520    1.237620    9.859880
  C      3.647460    1.253660    8.665150
  C      3.173760    2.545520    8.292550
  C      3.457400    3.706600    9.092120
  N      2.454470    2.861360    7.217760
  S      2.165160    4.442530    7.209830
  N      2.937460    4.811230    8.568390
  C      3.420380    0.093580    7.862900
  S      4.089130   -1.467930    8.291410
  C      3.410680   -2.150900    6.877390
  C      2.681300   -1.225700    6.120700
  C      2.701320    0.043120    6.673530
  C      3.404410   -3.399510    6.224820
  C      2.661670   -3.275430    5.033170
  C      2.122650   -1.870070    4.871860
  S      4.032040   -4.965710    6.490370
  C      3.293940   -5.506030    4.988130
  C      2.591240   -4.465080    4.352210
  F      5.343110    2.159160   11.757530
  F      4.851700    0.073100   10.322340
  C      5.152550    6.625300   15.079570
  C      7.432670    6.745660   13.939620
  C      2.708530   -1.149860    3.641450
  C      0.581850   -1.928110    4.889090
  C      5.562940    7.376230   16.338840
  C      8.196300    6.990660   12.643430
  C     -0.110890   -0.574090    4.816610
  C      2.286180   -1.724000    2.296000
  H      6.262900   -9.543830    8.056680
  H      4.764190  -12.052530    4.017730
  H      2.835090   -6.865690    3.490300
  H      8.794570   13.315060   17.315710
  H      6.959050   17.137410   14.696640
  H      4.960930   12.613420   12.363850
  H      6.534650    9.916180   14.762940
  H      5.593290    4.131850   12.779220
  H      2.242180    0.921620    6.261880
  H      2.064060   -4.633740    3.430130
  H      4.089100    6.796650   14.893820
  H      5.293410    5.553510   15.234010
  H      7.836400    7.394630   14.716620
  H      7.567700    5.708480   14.251850
  H      2.420740   -0.099110    3.696910
  H      3.797790   -1.194610    3.720610
  H      0.255450   -2.551610    4.055720
  H      0.281290   -2.432430    5.811110
  H      5.423990    8.446620   16.218280
  H      4.945010    7.045350   17.170480
  H      6.600890    7.184150   16.594440
  H      8.079020    8.021480   12.316530
  H      9.255490    6.799140   12.795750
  H      7.840420    6.335380   11.851640
  H      0.132150   -0.053030    3.894910
  H     -1.188400   -0.719300    4.847870
  H      0.170870    0.051570    5.658680
  H      1.208380   -1.683140    2.166580
  H      2.743640   -1.143920    1.497720
  H      2.613780   -2.754270    2.192600

 Total Charge           Charge          ....    0
 Multiplicity           Mult            ....    1
 Number of Electrons    NEL             ....  570
 Basis Dimension        Dim             .... 1248

ORBITAL ENERGIES
----------------

  NO   OCC          E(Eh)            E(eV)
   0   2.0000     -89.070955     -2423.7439
   1   2.0000     -89.003132     -2421.8983
   2   2.0000     -89.000989     -2421.8400
   3   2.0000     -88.999496     -2421.7994
   4   2.0000     -88.998124     -2421.7621
   5   2.0000     -24.852926      -676.2825
   6   2.0000     -24.851779      -676.2513
   7   2.0000     -24.833157      -675.7446
   8   2.0000     -24.833142      -675.7441
   9   2.0000     -24.831421      -675.6973
  10   2.0000     -24.831040      -675.6869
  11   2.0000     -19.259804      -524.0859
  12   2.0000     -19.258559      -524.0520
  13   2.0000     -14.501071      -394.5942
  14   2.0000     -14.500791      -394.5866
  15   2.0000     -14.453674      -393.3045
  16   2.0000     -14.451920      -393.2567
  17   2.0000     -14.449015      -393.1777
  18   2.0000     -14.448104      -393.1529
  19   2.0000     -10.433678      -283.9148
  20   2.0000     -10.432299      -283.8773
  21   2.0000     -10.418838      -283.5110
  22   2.0000     -10.418563      -283.5035
  23   2.0000     -10.418252      -283.4950
  24   2.0000     -10.417914      -283.4858
  25   2.0000     -10.408170      -283.2207
  26   2.0000     -10.406917      -283.1866
  27   2.0000     -10.388022      -282.6724
  28   2.0000     -10.386251      -282.6242
  29   2.0000     -10.381188      -282.4865
  30   2.0000     -10.380457      -282.4666
  31   2.0000     -10.376731      -282.3652
  32   2.0000     -10.376096      -282.3479
  33   2.0000     -10.367376      -282.1106
  34   2.0000     -10.365924      -282.0711
  35   2.0000     -10.364951      -282.0446
  36   2.0000     -10.364872      -282.0425
  37   2.0000     -10.363084      -281.9939
  38   2.0000     -10.361026      -281.9378
  39   2.0000     -10.360232      -281.9162
  40   2.0000     -10.355196      -281.7792
  41   2.0000     -10.355037      -281.7749
  42   2.0000     -10.353159      -281.7238
  43   2.0000     -10.353090      -281.7219
  44   2.0000     -10.352144      -281.6962
  45   2.0000     -10.350543      -281.6526
  46   2.0000     -10.350295      -281.6458
  47   2.0000     -10.349742      -281.6308
  48   2.0000     -10.349597      -281.6268
  49   2.0000     -10.349048      -281.6119
  50   2.0000     -10.346147      -281.5330
  51   2.0000     -10.342039      -281.4212
  52   2.0000     -10.341390      -281.4035
  53   2.0000     -10.341369      -281.4030
  54   2.0000     -10.340780      -281.3869
  55   2.0000     -10.337843      -281.3070
  56   2.0000     -10.335951      -281.2555
  57   2.0000     -10.335738      -281.2497
  58   2.0000     -10.335541      -281.2444
  59   2.0000     -10.334822      -281.2248
  60   2.0000     -10.331780      -281.1420
  61   2.0000     -10.328914      -281.0640
  62   2.0000     -10.327026      -281.0127
  63   2.0000     -10.326494      -280.9982
  64   2.0000     -10.324820      -280.9526
  65   2.0000     -10.324259      -280.9374
  66   2.0000     -10.322837      -280.8987
  67   2.0000     -10.321867      -280.8723
  68   2.0000     -10.321787      -280.8701
  69   2.0000     -10.311446      -280.5887
  70   2.0000     -10.311354      -280.5862
  71   2.0000     -10.310128      -280.5528
  72   2.0000     -10.309355      -280.5318
  73   2.0000     -10.296620      -280.1853
  74   2.0000     -10.296592      -280.1845
  75   2.0000     -10.291810      -280.0544
  76   2.0000     -10.289971      -280.0043
  77   2.0000      -8.181322      -222.6251
  78   2.0000      -8.116626      -220.8646
  79   2.0000      -8.114024      -220.7938
  80   2.0000      -8.111616      -220.7283
  81   2.0000      -8.109685      -220.6757
  82   2.0000      -6.142919      -167.1573
  83   2.0000      -6.134907      -166.9393
  84   2.0000      -6.133663      -166.9055
  85   2.0000      -6.075950      -165.3350
  86   2.0000      -6.073584      -165.2706
  87   2.0000      -6.071976      -165.2269
  88   2.0000      -6.071366      -165.2103
  89   2.0000      -6.069342      -165.1552
  90   2.0000      -6.069273      -165.1533
  91   2.0000      -6.069112      -165.1489
  92   2.0000      -6.066808      -165.0862
  93   2.0000      -6.066343      -165.0736
  94   2.0000      -6.064720      -165.0294
  95   2.0000      -6.063850      -165.0058
  96   2.0000      -6.062074      -164.9574
  97   2.0000      -1.382624       -37.6231
  98   2.0000      -1.363982       -37.1158
  99   2.0000      -1.362823       -37.0843
 100   2.0000      -1.362504       -37.0756
 101   2.0000      -1.347742       -36.6739
 102   2.0000      -1.347411       -36.6649
 103   2.0000      -1.189165       -32.3588
 104   2.0000      -1.178067       -32.0568
 105   2.0000      -1.175726       -31.9931
 106   2.0000      -1.067074       -29.0366
 107   2.0000      -1.065238       -28.9866
 108   2.0000      -1.060405       -28.8551
 109   2.0000      -1.059707       -28.8361
 110   2.0000      -1.048812       -28.5396
 111   2.0000      -1.042240       -28.3608
 112   2.0000      -1.041354       -28.3367
 113   2.0000      -1.041018       -28.3275
 114   2.0000      -1.032297       -28.0902
 115   2.0000      -1.031120       -28.0582
 116   2.0000      -1.024897       -27.8889
 117   2.0000      -1.019083       -27.7307
 118   2.0000      -0.996848       -27.1256
 119   2.0000      -0.995995       -27.1024
 120   2.0000      -0.981535       -26.7089
 121   2.0000      -0.976720       -26.5779
 122   2.0000      -0.946875       -25.7658
 123   2.0000      -0.944474       -25.7004
 124   2.0000      -0.942448       -25.6453
 125   2.0000      -0.934935       -25.4409
 126   2.0000      -0.930266       -25.3138
 127   2.0000      -0.922869       -25.1125
 128   2.0000      -0.912850       -24.8399
 129   2.0000      -0.912186       -24.8219
 130   2.0000      -0.908302       -24.7162
 131   2.0000      -0.895927       -24.3794
 132   2.0000      -0.887172       -24.1412
 133   2.0000      -0.884503       -24.0686
 134   2.0000      -0.883881       -24.0516
 135   2.0000      -0.883503       -24.0413
 136   2.0000      -0.880702       -23.9651
 137   2.0000      -0.879629       -23.9359
 138   2.0000      -0.863133       -23.4870
 139   2.0000      -0.849444       -23.1145
 140   2.0000      -0.837363       -22.7858
 141   2.0000      -0.812695       -22.1146
 142   2.0000      -0.811567       -22.0839
 143   2.0000      -0.810075       -22.0433
 144   2.0000      -0.807537       -21.9742
 145   2.0000      -0.802484       -21.8367
 146   2.0000      -0.799584       -21.7578
 147   2.0000      -0.779708       -21.2169
 148   2.0000      -0.776849       -21.1391
 149   2.0000      -0.767184       -20.8761
 150   2.0000      -0.754271       -20.5248
 151   2.0000      -0.747418       -20.3383
 152   2.0000      -0.744854       -20.2685
 153   2.0000      -0.744009       -20.2455
 154   2.0000      -0.739415       -20.1205
 155   2.0000      -0.734432       -19.9849
 156   2.0000      -0.730090       -19.8668
 157   2.0000      -0.722552       -19.6616
 158   2.0000      -0.721317       -19.6280
 159   2.0000      -0.710645       -19.3376
 160   2.0000      -0.704900       -19.1813
 161   2.0000      -0.701564       -19.0905
 162   2.0000      -0.696051       -18.9405
 163   2.0000      -0.694025       -18.8854
 164   2.0000      -0.689526       -18.7629
 165   2.0000      -0.681384       -18.5414
 166   2.0000      -0.679874       -18.5003
 167   2.0000      -0.679103       -18.4793
 168   2.0000      -0.673667       -18.3314
 169   2.0000      -0.672147       -18.2901
 170   2.0000      -0.671406       -18.2699
 171   2.0000      -0.668854       -18.2004
 172   2.0000      -0.662350       -18.0235
 173   2.0000      -0.656736       -17.8707
 174   2.0000      -0.650440       -17.6994
 175   2.0000      -0.645706       -17.5705
 176   2.0000      -0.644093       -17.5267
 177   2.0000      -0.633681       -17.2433
 178   2.0000      -0.629419       -17.1274
 179   2.0000      -0.628934       -17.1142
 180   2.0000      -0.624180       -16.9848
 181   2.0000      -0.623226       -16.9588
 182   2.0000      -0.622907       -16.9502
 183   2.0000      -0.616237       -16.7687
 184   2.0000      -0.609927       -16.5969
 185   2.0000      -0.605425       -16.4745
 186   2.0000      -0.603907       -16.4332
 187   2.0000      -0.600956       -16.3529
 188   2.0000      -0.600471       -16.3397
 189   2.0000      -0.595483       -16.2039
 190   2.0000      -0.589754       -16.0480
 191   2.0000      -0.588690       -16.0191
 192   2.0000      -0.586231       -15.9522
 193   2.0000      -0.585208       -15.9243
 194   2.0000      -0.584620       -15.9083
 195   2.0000      -0.582125       -15.8404
 196   2.0000      -0.581830       -15.8324
 197   2.0000      -0.580439       -15.7946
 198   2.0000      -0.576613       -15.6904
 199   2.0000      -0.575731       -15.6664
 200   2.0000      -0.574278       -15.6269
 201   2.0000      -0.572126       -15.5683
 202   2.0000      -0.567738       -15.4489
 203   2.0000      -0.565286       -15.3822
 204   2.0000      -0.562864       -15.3163
 205   2.0000      -0.560647       -15.2560
 206   2.0000      -0.554623       -15.0921
 207   2.0000      -0.554196       -15.0804
 208   2.0000      -0.551994       -15.0205
 209   2.0000      -0.547467       -14.8973
 210   2.0000      -0.542981       -14.7753
 211   2.0000      -0.540334       -14.7032
 212   2.0000      -0.537743       -14.6327
 213   2.0000      -0.536049       -14.5866
 214   2.0000      -0.533580       -14.5195
 215   2.0000      -0.533277       -14.5112
 216   2.0000      -0.529409       -14.4060
 217   2.0000      -0.529067       -14.3967
 218   2.0000      -0.527647       -14.3580
 219   2.0000      -0.527055       -14.3419
 220   2.0000      -0.524878       -14.2827
 221   2.0000      -0.521766       -14.1980
 222   2.0000      -0.521610       -14.1937
 223   2.0000      -0.520477       -14.1629
 224   2.0000      -0.518570       -14.1110
 225   2.0000      -0.516531       -14.0555
 226   2.0000      -0.514898       -14.0111
 227   2.0000      -0.514772       -14.0077
 228   2.0000      -0.507766       -13.8170
 229   2.0000      -0.502981       -13.6868
 230   2.0000      -0.494010       -13.4427
 231   2.0000      -0.493252       -13.4221
 232   2.0000      -0.491320       -13.3695
 233   2.0000      -0.489821       -13.3287
 234   2.0000      -0.488493       -13.2926
 235   2.0000      -0.488179       -13.2840
 236   2.0000      -0.486592       -13.2408
 237   2.0000      -0.485935       -13.2230
 238   2.0000      -0.484567       -13.1857
 239   2.0000      -0.484112       -13.1734
 240   2.0000      -0.483126       -13.1465
 241   2.0000      -0.480714       -13.0809
 242   2.0000      -0.478849       -13.0301
 243   2.0000      -0.478169       -13.0116
 244   2.0000      -0.477427       -12.9914
 245   2.0000      -0.476535       -12.9672
 246   2.0000      -0.473429       -12.8827
 247   2.0000      -0.471431       -12.8283
 248   2.0000      -0.466814       -12.7026
 249   2.0000      -0.463196       -12.6042
 250   2.0000      -0.461945       -12.5701
 251   2.0000      -0.461774       -12.5655
 252   2.0000      -0.459828       -12.5125
 253   2.0000      -0.455386       -12.3917
 254   2.0000      -0.453568       -12.3422
 255   2.0000      -0.452793       -12.3211
 256   2.0000      -0.451816       -12.2945
 257   2.0000      -0.447846       -12.1865
 258   2.0000      -0.442880       -12.0514
 259   2.0000      -0.441770       -12.0212
 260   2.0000      -0.440484       -11.9862
 261   2.0000      -0.440005       -11.9731
 262   2.0000      -0.436759       -11.8848
 263   2.0000      -0.436007       -11.8643
 264   2.0000      -0.431076       -11.7302
 265   2.0000      -0.428492       -11.6599
 266   2.0000      -0.423343       -11.5197
 267   2.0000      -0.416841       -11.3428
 268   2.0000      -0.408148       -11.1063
 269   2.0000      -0.395715       -10.7679
 270   2.0000      -0.385059       -10.4780
 271   2.0000      -0.381640       -10.3849
 272   2.0000      -0.381123       -10.3709
 273   2.0000      -0.376418       -10.2429
 274   2.0000      -0.371680       -10.1139
 275   2.0000      -0.371561       -10.1107
 276   2.0000      -0.370714       -10.0876
 277   2.0000      -0.367268        -9.9939
 278   2.0000      -0.363124        -9.8811
 279   2.0000      -0.360696        -9.8150
 280   2.0000      -0.349356        -9.5065
 281   2.0000      -0.344641        -9.3782
 282   2.0000      -0.332783        -9.0555
 283   2.0000      -0.294678        -8.0186
 284   2.0000      -0.270817        -7.3693
 285   0.0000      -0.090237        -2.4555
 286   0.0000      -0.069525        -1.8919
 287   0.0000      -0.055960        -1.5228
 288   0.0000      -0.039988        -1.0881
 289   0.0000      -0.037979        -1.0335

MULLIKEN ATOMIC CHARGES
-----------------------
   0 C :    0.230221
   1 O :   -0.202725
   2 C :   -0.055867
   3 C :   -0.094339
   4 C :    0.241982
   5 C :    0.243116
   6 C :   -0.087389
   7 C :    0.024718
   8 C :    0.293317
   9 C :   -0.384829
  10 C :   -0.124450
  11 N :    0.095675
  12 C :   -0.131755
  13 N :    0.107103
  14 C :   -0.148319
  15 F :   -0.179947
  16 C :    0.000993
  17 F :   -0.184287
  18 C :    0.225694
  19 O :   -0.190936
  20 C :   -0.056931
  21 C :   -0.093868
  22 C :    0.239846
  23 C :    0.242153
  24 C :   -0.081989
  25 C :    0.027397
  26 C :    0.278808
  27 C :   -0.383286
  28 C :   -0.126081
  29 N :    0.101480
  30 C :   -0.132594
  31 N :    0.108162
  32 C :   -0.143741
  33 F :   -0.180100
  34 C :    0.070479
  35 F :   -0.184663
  36 C :   -0.161816
  37 S :    0.181788
  38 C :   -0.054122
  39 C :   -0.019254
  40 C :    0.001956
  41 C :   -0.064305
  42 C :    0.012492
  43 C :   -0.188230
  44 S :    0.197073
  45 C :   -0.125117
  46 C :   -0.049379
  47 C :    0.082404
  48 C :    0.172161
  49 C :    0.159283
  50 C :    0.052777
  51 C :    0.045997
  52 C :   -0.004447
  53 N :   -0.331207
  54 S :    0.555194
  55 N :   -0.351012
  56 C :   -0.134012
  57 S :    0.190368
  58 C :   -0.087102
  59 C :    0.035063
  60 C :   -0.053256
  61 C :   -0.052195
  62 C :    0.043626
  63 C :   -0.170500
  64 S :    0.222534
  65 C :   -0.090185
  66 C :   -0.064559
  67 F :   -0.182064
  68 F :   -0.182599
  69 C :    0.031938
  70 C :    0.011604
  71 C :    0.008372
  72 C :    0.016532
  73 C :   -0.016979
  74 C :   -0.019931
  75 C :   -0.015435
  76 C :   -0.012155
  77 H :    0.041011
  78 H :    0.044709
  79 H :    0.026647
  80 H :    0.040153
  81 H :    0.045024
  82 H :    0.024236
  83 H :    0.042800
  84 H :    0.021004
  85 H :    0.028549
  86 H :    0.033048
  87 H :    0.032557
  88 H :    0.025464
  89 H :    0.043510
  90 H :    0.027248
  91 H :    0.031668
  92 H :    0.035871
  93 H :    0.030784
  94 H :    0.033499
  95 H :    0.040705
  96 H :    0.040509
  97 H :    0.031677
  98 H :    0.039560
  99 H :    0.038360
 100 H :    0.038428
 101 H :    0.027042
 102 H :    0.043755
 103 H :    0.032771
 104 H :    0.030098
 105 H :    0.043598
 106 H :    0.031370
Sum of atomic charges:   -0.0000000

LOEWDIN ATOMIC CHARGES
----------------------
   0 C :    0.091748
   1 O :   -0.169379
   2 C :   -0.049489
   3 C :   -0.007270
   4 C :    0.073950
   5 C :    0.076713
   6 C :   -0.017752
   7 C :   -0.019086
   8 C :    0.081596
   9 C :   -0.151872
  10 C :   -0.014342
  11 N :   -0.059541
  12 C :   -0.014870
  13 N :   -0.055480
  14 C :   -0.134498
  15 F :   -0.047769
  16 C :    0.064860
  17 F :   -0.049804
  18 C :    0.096938
  19 O :   -0.152455
  20 C :   -0.049898
  21 C :   -0.008011
  22 C :    0.073789
  23 C :    0.076748
  24 C :   -0.018007
  25 C :   -0.019680
  26 C :    0.080941
  27 C :   -0.150968
  28 C :   -0.018894
  29 N :   -0.054455
  30 C :   -0.014460
  31 N :   -0.055571
  32 C :   -0.124701
  33 F :   -0.047833
  34 C :    0.055885
  35 F :   -0.050215
  36 C :   -0.187817
  37 S :    0.460368
  38 C :   -0.158590
  39 C :   -0.046066
  40 C :   -0.000854
  41 C :   -0.209485
  42 C :   -0.022898
  43 C :   -0.038723
  44 S :    0.483098
  45 C :   -0.159347
  46 C :   -0.046357
  47 C :   -0.071991
  48 C :    0.078703
  49 C :    0.068838
  50 C :   -0.068258
  51 C :   -0.035252
  52 C :   -0.046180
  53 N :   -0.276498
  54 S :    0.653401
  55 N :   -0.294874
  56 C :   -0.165012
  57 S :    0.460225
  58 C :   -0.203401
  59 C :   -0.023662
  60 C :   -0.042779
  61 C :   -0.167067
  62 C :   -0.045790
  63 C :   -0.036848
  64 S :    0.509629
  65 C :   -0.194197
  66 C :   -0.008230
  67 F :   -0.042853
  68 F :   -0.047660
  69 C :   -0.011791
  70 C :   -0.016977
  71 C :   -0.016839
  72 C :   -0.015570
  73 C :   -0.059940
  74 C :   -0.058063
  75 C :   -0.060257
  76 C :   -0.059477
  77 H :    0.055318
  78 H :    0.053898
  79 H :    0.051977
  80 H :    0.054565
  81 H :    0.053798
  82 H :    0.044118
  83 H :    0.035717
  84 H :    0.033454
  85 H :    0.030510
  86 H :    0.040161
  87 H :    0.029897
  88 H :    0.023951
  89 H :    0.028185
  90 H :    0.025219
  91 H :    0.023879
  92 H :    0.032147
  93 H :    0.023737
  94 H :    0.031765
  95 H :    0.028702
  96 H :    0.032485
  97 H :    0.024895
  98 H :    0.027464
  99 H :    0.029589
 100 H :    0.025938
 101 H :    0.023248
 102 H :    0.033559
 103 H :    0.026529
 104 H :    0.024001
 105 H :    0.034028
 106 H :    0.025737

  Mayer bond orders larger than 0.100000
B(  0-C ,  1-O ) :   2.1232 B(  0-C ,  2-C ) :   0.9682 B(  0-C , 14-C ) :   0.9907
B(  2-C ,  3-C ) :   1.3443 B(  2-C ,  7-C ) :   1.3450 B(  3-C ,  4-C ) :   1.3261
B(  3-C , 77-H ) :   1.0155 B(  4-C ,  5-C ) :   1.2968 B(  4-C , 17-F ) :   1.0992
B(  5-C ,  6-C ) :   1.3481 B(  5-C , 15-F ) :   1.1136 B(  6-C ,  7-C ) :   1.3371
B(  6-C , 78-H ) :   0.9883 B(  7-C ,  8-C ) :   1.0123 B(  8-C ,  9-C ) :   1.6292
B(  8-C , 14-C ) :   1.1084 B(  9-C , 10-C ) :   1.1352 B(  9-C , 12-C ) :   1.1312
B( 10-C , 11-N ) :   2.9537 B( 12-C , 13-N ) :   2.9724 B( 14-C , 16-C ) :   1.4874
B( 16-C , 65-C ) :   1.3216 B( 16-C , 79-H ) :   0.9397 B( 18-C , 19-O ) :   2.1363
B( 18-C , 20-C ) :   0.9660 B( 18-C , 32-C ) :   0.9611 B( 20-C , 21-C ) :   1.3444
B( 20-C , 25-C ) :   1.3473 B( 21-C , 22-C ) :   1.3296 B( 21-C , 80-H ) :   1.0145
B( 22-C , 23-C ) :   1.2930 B( 22-C , 35-F ) :   1.0997 B( 23-C , 24-C ) :   1.3515
B( 23-C , 33-F ) :   1.1144 B( 24-C , 25-C ) :   1.3332 B( 24-C , 81-H ) :   0.9878
B( 25-C , 26-C ) :   1.0108 B( 26-C , 27-C ) :   1.6284 B( 26-C , 32-C ) :   1.1102
B( 27-C , 28-C ) :   1.1278 B( 27-C , 30-C ) :   1.1318 B( 28-C , 29-N ) :   2.9599
B( 30-C , 31-N ) :   2.9723 B( 32-C , 34-C ) :   1.5685 B( 34-C , 36-C ) :   1.2847
B( 34-C , 82-H ) :   0.9080 B( 36-C , 37-S ) :   1.0757 B( 36-C , 40-C ) :   1.3622
B( 37-S , 38-C ) :   1.1483 B( 38-C , 39-C ) :   1.4431 B( 38-C , 41-C ) :   1.2213
B( 39-C , 40-C ) :   1.3857 B( 39-C , 43-C ) :   0.9177 B( 40-C , 83-H ) :   0.9730
B( 41-C , 42-C ) :   1.4956 B( 41-C , 44-S ) :   1.0602 B( 42-C , 43-C ) :   0.9372
B( 42-C , 46-C ) :   1.3406 B( 43-C , 69-C ) :   1.0127 B( 43-C , 70-C ) :   1.0286
B( 44-S , 45-C ) :   1.1358 B( 45-C , 46-C ) :   1.4450 B( 45-C , 47-C ) :   1.1421
B( 46-C , 84-H ) :   1.0029 B( 47-C , 48-C ) :   1.4014 B( 47-C , 50-C ) :   0.1072
B( 47-C , 52-C ) :   1.1624 B( 48-C , 49-C ) :   1.1844 B( 48-C , 67-F ) :   1.1108
B( 49-C , 50-C ) :   1.3989 B( 49-C , 68-F ) :   1.1098 B( 50-C , 51-C ) :   1.1816
B( 50-C , 56-C ) :   1.1581 B( 51-C , 52-C ) :   1.1393 B( 51-C , 53-N ) :   1.5252
B( 52-C , 55-N ) :   1.5101 B( 53-N , 54-S ) :   1.2666 B( 53-N , 55-N ) :   0.1440
B( 54-S , 55-N ) :   1.2612 B( 56-C , 57-S ) :   1.1151 B( 56-C , 60-C ) :   1.4665
B( 57-S , 58-C ) :   1.0746 B( 58-C , 59-C ) :   1.5041 B( 58-C , 61-C ) :   1.2301
B( 59-C , 60-C ) :   1.3241 B( 59-C , 63-C ) :   0.9408 B( 60-C , 85-H ) :   0.9827
B( 61-C , 62-C ) :   1.4321 B( 61-C , 64-S ) :   1.1095 B( 62-C , 63-C ) :   0.9274
B( 62-C , 66-C ) :   1.4104 B( 63-C , 71-C ) :   1.0038 B( 63-C , 72-C ) :   1.0036
B( 64-S , 65-C ) :   1.0678 B( 65-C , 66-C ) :   1.3108 B( 66-C , 86-H ) :   1.0090
B( 69-C , 73-C ) :   1.0980 B( 69-C , 87-H ) :   0.9479 B( 69-C , 88-H ) :   0.9453
B( 70-C , 74-C ) :   1.0886 B( 70-C , 89-H ) :   0.9466 B( 70-C , 90-H ) :   0.9489
B( 71-C , 76-C ) :   1.0982 B( 71-C , 91-H ) :   0.9468 B( 71-C , 92-H ) :   0.9459
B( 72-C , 75-C ) :   1.0960 B( 72-C , 93-H ) :   0.9474 B( 72-C , 94-H ) :   0.9456
B( 73-C , 95-H ) :   0.9670 B( 73-C , 96-H ) :   0.9666 B( 73-C , 97-H ) :   0.9670
B( 74-C , 98-H ) :   0.9698 B( 74-C , 99-H ) :   0.9707 B( 74-C ,100-H ) :   0.9664
B( 75-C ,101-H ) :   0.9655 B( 75-C ,102-H ) :   0.9672 B( 75-C ,103-H ) :   0.9672
B( 76-C ,104-H ) :   0.9651 B( 76-C ,105-H ) :   0.9669 B( 76-C ,106-H ) :   0.9673

-----------------------------------------------------------------------------
         ABSORPTION SPECTRUM VIA TRANSITION ELECTRIC DIPOLE MOMENTS
-----------------------------------------------------------------------------
State   Energy  Wavelength   fosc         T2         TX        TY        TZ
        (cm-1)    (nm)                  (au**2)     (au)      (au)      (au)
-----------------------------------------------------------------------------
   0   16391.8    610.1   3.736288200  75.03921   0.74554   7.93287   3.39897
   1   23100.3    432.9   0.046494039   0.66260  -0.69466   0.09539   0.41346
   2   26771.6    373.5   0.439072282   5.39931  -0.22300   2.29882   0.25499
   3   28798.1    347.2   0.032092296   0.36687  -0.28636   0.44534  -0.29417
   4   29380.7    340.4   0.155405620   1.74132  -0.00365   1.27716   0.33191
   5   30202.5    331.1   0.011184241   0.12191   0.27615   0.09625   0.19076
   6   32996.6    303.1   0.032045734   0.31972  -0.37372  -0.20616  -0.37088
   7   35061.2    285.2   0.631305217   5.92773   1.45963  -0.41998   1.90285
   8   36454.0    274.3   0.033065594   0.29861  -0.04659  -0.52862   0.13039
   9   36951.3    270.6   0.021752545   0.19380  -0.08439   0.37069  -0.22196
  10   37876.9    264.0   0.235899582   2.05035   0.89294   0.22038   1.09747
  11   38071.3    262.7   0.072248521   0.62475   0.45315   0.26447   0.59115
  12   38198.2    261.8   0.030895720   0.26628   0.12578  -0.45740   0.20308
  13   38685.3    258.5   0.048790960   0.41521   0.40815  -0.49737   0.03541
  14   39410.4    253.7   0.639561353   5.34253  -1.14307   0.48363  -1.94988
  15   39959.7    250.3   0.240921169   1.98485  -0.73669   0.45672  -1.11065
  16   40216.3    248.7   0.057597786   0.47150  -0.24300  -0.44173  -0.46618

Dispersion correction           -0.066457025
FINAL SINGLE POINT ENERGY     -5293.078115479961

DIPOLE MOMENT
-------------
                                X             Y             Z
Electronic contribution:     23.14820      -9.58897      17.66387
Nuclear contribution   :    -23.06722       9.27172     -16.51732
                        -----------------------------------------
Total Dipole Moment    :      0.08098      -0.31725       1.14654
                        -----------------------------------------
Magnitude (a.u.)       :      1.19238
Magnitude (Debye)      :      3.03079

Rotational constants in cm-1:     0.002266     0.000156     0.000148
Rotational constants in MHz :    67.944373     4.676540     4.430143

                             ****ORCA TERMINATED NORMALLY****
TOTAL RUN TIME: 0 days 0 hours 10 minutes 46 seconds 594 msec
