                         Program Version 4.2.0 -  RELEASE  -
|  1> # ORCA input file
|  2> # SCF done       -199.270009418636          0.000676126360
|  3> ! wb97x-d3 def2-SVP def2/J RIJCOSX Grid4 TightSCF
|  4> %maxcore 5000
|  5> %tddft
|  6>     Mode sTDDFT
|  7>     Ethresh 5.0
|  8>     maxcore 5000
|  9> end
| 10>
| 11> %pal
| 12>   nprocs 6
| 13>   end
| 14> * xyz 0 1
| 15>    C       -2.34597         3.72218        -1.39101
| 16>    O       -3.05409         4.10975        -0.47767
| 17>    C       -1.19990         4.44303        -1.97426
| 18>    C       -0.68228         5.67384        -1.62399
| 19>    C        0.41816         6.14499        -2.32689
| 20>    C        0.97246         5.39154        -3.35087
| 21>    C        0.45302         4.15250        -3.70554
| 22>    C       -0.64486         3.67163        -3.01030
| 23>    C       -1.40791         2.42807        -3.13324
| 24>    C       -1.14503         1.42847        -4.03529
| 25>    C       -1.86048         0.22024        -4.16261
| 26>    N       -2.38301        -0.78947        -4.33065
| 27>    C       -0.09834         1.46729        -4.98015
| 28>    N        0.72898         1.42776        -5.77527
| 29>    C       -2.45455         2.46206        -2.13296
| 30>    C       -3.38626         1.47734        -1.90771
| 31>    C      -12.13578         0.88725        18.28449
| 32>    O      -11.97198         1.95500        17.72696
| 33>    C      -12.12110         0.68012        19.74596
| 34>    C      -11.88140         1.60817        20.74006
| 35>    C      -11.90927         1.17747        22.05875
| 36>    C      -12.17149        -0.15172        22.35717
| 37>    C      -12.41619        -1.08628        21.35924
| 38>    C      -12.39214        -0.66602        20.03844
| 39>    C      -12.60643        -1.38229        18.78173
| 40>    C      -12.98986        -2.69573        18.68911
| 41>    C      -13.28079        -3.40573        17.50485
| 42>    N      -13.55538        -4.06438        16.60408
| 43>    C      -13.18027        -3.54501        19.79995
| 44>    N      -13.34656        -4.29935        20.64951
| 45>    C      -12.38092        -0.44615        17.69335
| 46>    C      -12.32327        -0.82666        16.37528
| 47>    C      -12.07869        -0.10043        15.20052
| 48>    S      -11.92074        -1.06221        13.72144
| 49>    C      -11.59558         0.35134        12.82488
| 50>    C      -11.63168         1.51250        13.61293
| 51>    C      -11.90268         1.25869        14.94111
| 52>    C      -11.25819         0.70699        11.50325
| 53>    C      -11.07072         2.09148        11.43557
| 54>    C      -11.29213         2.73126        12.78534
| 55>    S      -11.00845        -0.07800         9.99863
| 56>    C      -10.61671         1.46161         9.26490
| 57>    C      -10.71977         2.51533        10.16168
| 58>    C      -10.16982         1.47722         7.90755
| 59>    C       -9.56803         2.55337         7.26409
| 60>    C       -9.02056         2.47536         5.97818
| 61>    C       -9.02453         1.32791         5.18961
| 62>    C       -9.69467         0.23134         5.79141
| 63>    C      -10.23520         0.31222         7.10607
| 64>    N       -9.92756        -1.01355         5.34997
| 65>    N      -10.55666        -1.59845         6.33118
| 66>    N      -10.76904        -0.87894         7.39557
| 67>    C       -8.36482         1.21641         3.92806
| 68>    S       -7.29618         2.46867         3.33176
| 69>    C       -6.89272         1.48775         1.98771
| 70>    C       -7.57369         0.26676         1.98608
| 71>    C       -8.40544         0.11479         3.08272
| 72>    C       -6.00665         1.53063         0.89067
| 73>    C       -6.13312         0.32739         0.16975
| 74>    C       -7.19553        -0.55845         0.77784
| 75>    S       -4.79509         2.57343         0.28619
| 76>    C       -4.40323         1.38684        -0.95181
| 77>    C       -5.22758         0.25119        -0.86013
| 78>    F       -8.43431         3.59421         5.51029
| 79>    C       -8.43958        -0.67063        -0.13134
| 80>    C       -8.18841        -1.32712        -1.48198
| 81>    C       -6.64617        -1.93893         1.16704
| 82>    C       -5.51503        -1.85407         2.18529
| 83>    C       -9.99941         3.34938        13.36290
| 84>    C       -9.43320         4.52496        12.57821
| 85>    C      -12.44605         3.74681        12.75731
| 86>    C      -13.77012         3.12167        12.33352
| 87>    C      -10.96975        -2.97104         6.25844
| 88>    C      -10.14984        -3.82203         7.22183
| 89>    F       -9.44554         3.73751         7.89395
| 90>    H       -1.13049         6.24153        -0.82306
| 91>    H        0.84642         7.10370        -2.07584
| 92>    H        1.82830         5.77244        -3.88775
| 93>    H        0.90660         3.59122        -4.50572
| 94>    H       -3.33602         0.60805        -2.55234
| 95>    H      -11.67831         2.63625        20.48210
| 96>    H      -11.72464         1.87895        22.85840
| 97>    H      -12.18642        -0.47185        23.38824
| 98>    H      -12.61386        -2.11172        21.62392
| 99>    H      -12.45044        -1.88699        16.19037
|100>    H      -11.97016         1.99665        15.71882
|101>    H      -10.55365         3.53745         9.87931
|102>    H       -9.01072        -0.74398         3.30409
|103>    H       -5.10820        -0.58066        -1.53174
|104>    H       -9.20051        -1.23452         0.41248
|105>    H       -8.82793         0.33766        -0.29530
|106>    H       -7.83595        -2.34839        -1.36782
|107>    H       -9.11616        -1.35229        -2.04904
|108>    H       -7.45719        -0.76416        -2.05507
|109>    H       -7.46324        -2.53429         1.57929
|110>    H       -6.27898        -2.43655         0.26913
|111>    H       -5.86188        -1.40407         3.11256
|112>    H       -5.13739        -2.84937         2.40666
|113>    H       -4.69419        -1.25454         1.79840
|114>    H      -10.21535         3.66644        14.38508
|115>    H       -9.24406         2.56094        13.41357
|116>    H      -10.14136         5.34717        12.52830
|117>    H       -8.53443         4.88566        13.07319
|118>    H       -9.16474         4.22856        11.56851
|119>    H      -12.54971         4.17850        13.75434
|120>    H      -12.19195         4.54611        12.06060
|121>    H      -14.07467         2.34621        13.03249
|122>    H      -14.54737         3.88145        12.30628
|123>    H      -13.68862         2.67944        11.34294
|124>    H      -12.02886        -3.02314         6.52303
|125>    H      -10.82805        -3.29150         5.22531
|126>    H      -10.27256        -3.45114         8.23611
|127>    H      -10.48655        -4.85352         7.18004
|128>    H       -9.09551        -3.78683         6.95840
|129> *
|130>
|131>                          ****END OF INPUT****

CARTESIAN COORDINATES (ANGSTROEM)
---------------------------------
  C     -2.345970    3.722180   -1.391010
  O     -3.054090    4.109750   -0.477670
  C     -1.199900    4.443030   -1.974260
  C     -0.682280    5.673840   -1.623990
  C      0.418160    6.144990   -2.326890
  C      0.972460    5.391540   -3.350870
  C      0.453020    4.152500   -3.705540
  C     -0.644860    3.671630   -3.010300
  C     -1.407910    2.428070   -3.133240
  C     -1.145030    1.428470   -4.035290
  C     -1.860480    0.220240   -4.162610
  N     -2.383010   -0.789470   -4.330650
  C     -0.098340    1.467290   -4.980150
  N      0.728980    1.427760   -5.775270
  C     -2.454550    2.462060   -2.132960
  C     -3.386260    1.477340   -1.907710
  C    -12.135780    0.887250   18.284490
  O    -11.971980    1.955000   17.726960
  C    -12.121100    0.680120   19.745960
  C    -11.881400    1.608170   20.740060
  C    -11.909270    1.177470   22.058750
  C    -12.171490   -0.151720   22.357170
  C    -12.416190   -1.086280   21.359240
  C    -12.392140   -0.666020   20.038440
  C    -12.606430   -1.382290   18.781730
  C    -12.989860   -2.695730   18.689110
  C    -13.280790   -3.405730   17.504850
  N    -13.555380   -4.064380   16.604080
  C    -13.180270   -3.545010   19.799950
  N    -13.346560   -4.299350   20.649510
  C    -12.380920   -0.446150   17.693350
  C    -12.323270   -0.826660   16.375280
  C    -12.078690   -0.100430   15.200520
  S    -11.920740   -1.062210   13.721440
  C    -11.595580    0.351340   12.824880
  C    -11.631680    1.512500   13.612930
  C    -11.902680    1.258690   14.941110
  C    -11.258190    0.706990   11.503250
  C    -11.070720    2.091480   11.435570
  C    -11.292130    2.731260   12.785340
  S    -11.008450   -0.078000    9.998630
  C    -10.616710    1.461610    9.264900
  C    -10.719770    2.515330   10.161680
  C    -10.169820    1.477220    7.907550
  C     -9.568030    2.553370    7.264090
  C     -9.020560    2.475360    5.978180
  C     -9.024530    1.327910    5.189610
  C     -9.694670    0.231340    5.791410
  C    -10.235200    0.312220    7.106070
  N     -9.927560   -1.013550    5.349970
  N    -10.556660   -1.598450    6.331180
  N    -10.769040   -0.878940    7.395570
  C     -8.364820    1.216410    3.928060
  S     -7.296180    2.468670    3.331760
  C     -6.892720    1.487750    1.987710
  C     -7.573690    0.266760    1.986080
  C     -8.405440    0.114790    3.082720
  C     -6.006650    1.530630    0.890670
  C     -6.133120    0.327390    0.169750
  C     -7.195530   -0.558450    0.777840
  S     -4.795090    2.573430    0.286190
  C     -4.403230    1.386840   -0.951810
  C     -5.227580    0.251190   -0.860130
  F     -8.434310    3.594210    5.510290
  C     -8.439580   -0.670630   -0.131340
  C     -8.188410   -1.327120   -1.481980
  C     -6.646170   -1.938930    1.167040
  C     -5.515030   -1.854070    2.185290
  C     -9.999410    3.349380   13.362900
  C     -9.433200    4.524960   12.578210
  C    -12.446050    3.746810   12.757310
  C    -13.770120    3.121670   12.333520
  C    -10.969750   -2.971040    6.258440
  C    -10.149840   -3.822030    7.221830
  F     -9.445540    3.737510    7.893950
  H     -1.130490    6.241530   -0.823060
  H      0.846420    7.103700   -2.075840
  H      1.828300    5.772440   -3.887750
  H      0.906600    3.591220   -4.505720
  H     -3.336020    0.608050   -2.552340
  H    -11.678310    2.636250   20.482100
  H    -11.724640    1.878950   22.858400
  H    -12.186420   -0.471850   23.388240
  H    -12.613860   -2.111720   21.623920
  H    -12.450440   -1.886990   16.190370
  H    -11.970160    1.996650   15.718820
  H    -10.553650    3.537450    9.879310
  H     -9.010720   -0.743980    3.304090
  H     -5.108200   -0.580660   -1.531740
  H     -9.200510   -1.234520    0.412480
  H     -8.827930    0.337660   -0.295300
  H     -7.835950   -2.348390   -1.367820
  H     -9.116160   -1.352290   -2.049040
  H     -7.457190   -0.764160   -2.055070
  H     -7.463240   -2.534290    1.579290
  H     -6.278980   -2.436550    0.269130
  H     -5.861880   -1.404070    3.112560
  H     -5.137390   -2.849370    2.406660
  H     -4.694190   -1.254540    1.798400
  H    -10.215350    3.666440   14.385080
  H     -9.244060    2.560940   13.413570
  H    -10.141360    5.347170   12.528300
  H     -8.534430    4.885660   13.073190
  H     -9.164740    4.228560   11.568510
  H    -12.549710    4.178500   13.754340
  H    -12.191950    4.546110   12.060600
  H    -14.074670    2.346210   13.032490
  H    -14.547370    3.881450   12.306280
  H    -13.688620    2.679440   11.342940
  H    -12.028860   -3.023140    6.523030
  H    -10.828050   -3.291500    5.225310
  H    -10.272560   -3.451140    8.236110
  H    -10.486550   -4.853520    7.180040
  H     -9.095510   -3.786830    6.958400

 Total Charge           Charge          ....    0
 Multiplicity           Mult            ....    1
 Number of Electrons    NEL             ....  546
 Basis Dimension        Dim             .... 1261

ORBITAL ENERGIES
----------------

  NO   OCC          E(Eh)            E(eV)
   0   2.0000     -88.996038     -2421.7053
   1   2.0000     -88.993650     -2421.6403
   2   2.0000     -88.992452     -2421.6077
   3   2.0000     -88.990217     -2421.5469
   4   2.0000     -24.838065      -675.8781
   5   2.0000     -24.837576      -675.8648
   6   2.0000     -19.249870      -523.8156
   7   2.0000     -19.249581      -523.8077
   8   2.0000     -14.591779      -397.0625
   9   2.0000     -14.497165      -394.4879
  10   2.0000     -14.495413      -394.4402
  11   2.0000     -14.445977      -393.0950
  12   2.0000     -14.445233      -393.0748
  13   2.0000     -14.441068      -392.9614
  14   2.0000     -14.440592      -392.9485
  15   2.0000     -10.417918      -283.4860
  16   2.0000     -10.416307      -283.4421
  17   2.0000     -10.398264      -282.9512
  18   2.0000     -10.395807      -282.8843
  19   2.0000     -10.371380      -282.2196
  20   2.0000     -10.371020      -282.2098
  21   2.0000     -10.368012      -282.1279
  22   2.0000     -10.367880      -282.1244
  23   2.0000     -10.367255      -282.1073
  24   2.0000     -10.357962      -281.8545
  25   2.0000     -10.356824      -281.8235
  26   2.0000     -10.356698      -281.8201
  27   2.0000     -10.356663      -281.8191
  28   2.0000     -10.354667      -281.7648
  29   2.0000     -10.354250      -281.7535
  30   2.0000     -10.353636      -281.7368
  31   2.0000     -10.353201      -281.7249
  32   2.0000     -10.351772      -281.6860
  33   2.0000     -10.347663      -281.5742
  34   2.0000     -10.346982      -281.5557
  35   2.0000     -10.346732      -281.5489
  36   2.0000     -10.346346      -281.5384
  37   2.0000     -10.344247      -281.4813
  38   2.0000     -10.343144      -281.4513
  39   2.0000     -10.342654      -281.4379
  40   2.0000     -10.341664      -281.4110
  41   2.0000     -10.340240      -281.3722
  42   2.0000     -10.333684      -281.1938
  43   2.0000     -10.333261      -281.1823
  44   2.0000     -10.330352      -281.1032
  45   2.0000     -10.330301      -281.1018
  46   2.0000     -10.327944      -281.0377
  47   2.0000     -10.324217      -280.9362
  48   2.0000     -10.323061      -280.9048
  49   2.0000     -10.322760      -280.8966
  50   2.0000     -10.322482      -280.8890
  51   2.0000     -10.322429      -280.8876
  52   2.0000     -10.322148      -280.8799
  53   2.0000     -10.321765      -280.8695
  54   2.0000     -10.321761      -280.8694
  55   2.0000     -10.321096      -280.8513
  56   2.0000     -10.319771      -280.8153
  57   2.0000     -10.319539      -280.8089
  58   2.0000     -10.319348      -280.8037
  59   2.0000     -10.318942      -280.7927
  60   2.0000     -10.318678      -280.7855
  61   2.0000     -10.318675      -280.7854
  62   2.0000     -10.316991      -280.7396
  63   2.0000     -10.314984      -280.6850
  64   2.0000     -10.314597      -280.6745
  65   2.0000     -10.314233      -280.6645
  66   2.0000     -10.313837      -280.6538
  67   2.0000     -10.305878      -280.4372
  68   2.0000     -10.305564      -280.4287
  69   2.0000     -10.304437      -280.3980
  70   2.0000     -10.304408      -280.3972
  71   2.0000     -10.290227      -280.0113
  72   2.0000     -10.289462      -279.9905
  73   2.0000     -10.286057      -279.8978
  74   2.0000     -10.284769      -279.8628
  75   2.0000      -8.109597      -220.6734
  76   2.0000      -8.106201      -220.5809
  77   2.0000      -8.105583      -220.5641
  78   2.0000      -8.101710      -220.4588
  79   2.0000      -6.068948      -165.1445
  80   2.0000      -6.065847      -165.0601
  81   2.0000      -6.065147      -165.0411
  82   2.0000      -6.064969      -165.0362
  83   2.0000      -6.062018      -164.9559
  84   2.0000      -6.061446      -164.9403
  85   2.0000      -6.061400      -164.9391
  86   2.0000      -6.060833      -164.9237
  87   2.0000      -6.058480      -164.8596
  88   2.0000      -6.057887      -164.8435
  89   2.0000      -6.056724      -164.8119
  90   2.0000      -6.054088      -164.7401
  91   2.0000      -1.367009       -37.1982
  92   2.0000      -1.348966       -36.7072
  93   2.0000      -1.276454       -34.7341
  94   2.0000      -1.167373       -31.7658
  95   2.0000      -1.165957       -31.7273
  96   2.0000      -1.061113       -28.8743
  97   2.0000      -1.058178       -28.7945
  98   2.0000      -1.050645       -28.5895
  99   2.0000      -1.050091       -28.5744
 100   2.0000      -1.049417       -28.5561
 101   2.0000      -1.044723       -28.4283
 102   2.0000      -1.029264       -28.0077
 103   2.0000      -1.029226       -28.0067
 104   2.0000      -1.023986       -27.8641
 105   2.0000      -1.023867       -27.8608
 106   2.0000      -1.019802       -27.7502
 107   2.0000      -1.016303       -27.6550
 108   2.0000      -0.987151       -26.8618
 109   2.0000      -0.983605       -26.7653
 110   2.0000      -0.980466       -26.6798
 111   2.0000      -0.974075       -26.5059
 112   2.0000      -0.968183       -26.3456
 113   2.0000      -0.939964       -25.5777
 114   2.0000      -0.935884       -25.4667
 115   2.0000      -0.933911       -25.4130
 116   2.0000      -0.925420       -25.1819
 117   2.0000      -0.921024       -25.0623
 118   2.0000      -0.901009       -24.5177
 119   2.0000      -0.892098       -24.2752
 120   2.0000      -0.891819       -24.2676
 121   2.0000      -0.890999       -24.2453
 122   2.0000      -0.887239       -24.1430
 123   2.0000      -0.880542       -23.9608
 124   2.0000      -0.879441       -23.9308
 125   2.0000      -0.877216       -23.8703
 126   2.0000      -0.876766       -23.8580
 127   2.0000      -0.874311       -23.7912
 128   2.0000      -0.872602       -23.7447
 129   2.0000      -0.853422       -23.2228
 130   2.0000      -0.838613       -22.8198
 131   2.0000      -0.829650       -22.5759
 132   2.0000      -0.806891       -21.9566
 133   2.0000      -0.802137       -21.8273
 134   2.0000      -0.801958       -21.8224
 135   2.0000      -0.799061       -21.7436
 136   2.0000      -0.797618       -21.7043
 137   2.0000      -0.788261       -21.4497
 138   2.0000      -0.785076       -21.3630
 139   2.0000      -0.768423       -20.9099
 140   2.0000      -0.749871       -20.4050
 141   2.0000      -0.748130       -20.3577
 142   2.0000      -0.735099       -20.0031
 143   2.0000      -0.734284       -19.9809
 144   2.0000      -0.730520       -19.8785
 145   2.0000      -0.727974       -19.8092
 146   2.0000      -0.722154       -19.6508
 147   2.0000      -0.719748       -19.5853
 148   2.0000      -0.718116       -19.5409
 149   2.0000      -0.715055       -19.4576
 150   2.0000      -0.710030       -19.3209
 151   2.0000      -0.704675       -19.1752
 152   2.0000      -0.693707       -18.8767
 153   2.0000      -0.686560       -18.6822
 154   2.0000      -0.682931       -18.5835
 155   2.0000      -0.674933       -18.3659
 156   2.0000      -0.672824       -18.3085
 157   2.0000      -0.669450       -18.2167
 158   2.0000      -0.667671       -18.1683
 159   2.0000      -0.665003       -18.0956
 160   2.0000      -0.660565       -17.9749
 161   2.0000      -0.652751       -17.7622
 162   2.0000      -0.649690       -17.6790
 163   2.0000      -0.647792       -17.6273
 164   2.0000      -0.642363       -17.4796
 165   2.0000      -0.641839       -17.4653
 166   2.0000      -0.639092       -17.3906
 167   2.0000      -0.624807       -17.0019
 168   2.0000      -0.622072       -16.9274
 169   2.0000      -0.612108       -16.6563
 170   2.0000      -0.611593       -16.6423
 171   2.0000      -0.605758       -16.4835
 172   2.0000      -0.595132       -16.1944
 173   2.0000      -0.594779       -16.1848
 174   2.0000      -0.591274       -16.0894
 175   2.0000      -0.589141       -16.0313
 176   2.0000      -0.586881       -15.9698
 177   2.0000      -0.584286       -15.8992
 178   2.0000      -0.583325       -15.8731
 179   2.0000      -0.580012       -15.7829
 180   2.0000      -0.578414       -15.7395
 181   2.0000      -0.573593       -15.6083
 182   2.0000      -0.571291       -15.5456
 183   2.0000      -0.569851       -15.5064
 184   2.0000      -0.568789       -15.4775
 185   2.0000      -0.567749       -15.4492
 186   2.0000      -0.563459       -15.3325
 187   2.0000      -0.561365       -15.2755
 188   2.0000      -0.560459       -15.2509
 189   2.0000      -0.559142       -15.2150
 190   2.0000      -0.558110       -15.1870
 191   2.0000      -0.557850       -15.1799
 192   2.0000      -0.553364       -15.0578
 193   2.0000      -0.552869       -15.0443
 194   2.0000      -0.549854       -14.9623
 195   2.0000      -0.548123       -14.9152
 196   2.0000      -0.540422       -14.7056
 197   2.0000      -0.538173       -14.6444
 198   2.0000      -0.532500       -14.4901
 199   2.0000      -0.530942       -14.4477
 200   2.0000      -0.530809       -14.4441
 201   2.0000      -0.527285       -14.3481
 202   2.0000      -0.525886       -14.3101
 203   2.0000      -0.525345       -14.2954
 204   2.0000      -0.522208       -14.2100
 205   2.0000      -0.517777       -14.0894
 206   2.0000      -0.515493       -14.0273
 207   2.0000      -0.512156       -13.9365
 208   2.0000      -0.511648       -13.9227
 209   2.0000      -0.508803       -13.8452
 210   2.0000      -0.506978       -13.7956
 211   2.0000      -0.504802       -13.7364
 212   2.0000      -0.502060       -13.6617
 213   2.0000      -0.498451       -13.5635
 214   2.0000      -0.496087       -13.4992
 215   2.0000      -0.492107       -13.3909
 216   2.0000      -0.491080       -13.3630
 217   2.0000      -0.486730       -13.2446
 218   2.0000      -0.485217       -13.2034
 219   2.0000      -0.484741       -13.1905
 220   2.0000      -0.484550       -13.1853
 221   2.0000      -0.483544       -13.1579
 222   2.0000      -0.482643       -13.1334
 223   2.0000      -0.479411       -13.0454
 224   2.0000      -0.478364       -13.0170
 225   2.0000      -0.476949       -12.9785
 226   2.0000      -0.476537       -12.9672
 227   2.0000      -0.476018       -12.9531
 228   2.0000      -0.473229       -12.8772
 229   2.0000      -0.470715       -12.8088
 230   2.0000      -0.470495       -12.8028
 231   2.0000      -0.470056       -12.7909
 232   2.0000      -0.469409       -12.7733
 233   2.0000      -0.466204       -12.6860
 234   2.0000      -0.464182       -12.6310
 235   2.0000      -0.460917       -12.5422
 236   2.0000      -0.456585       -12.4243
 237   2.0000      -0.455413       -12.3924
 238   2.0000      -0.454904       -12.3786
 239   2.0000      -0.452378       -12.3098
 240   2.0000      -0.451546       -12.2872
 241   2.0000      -0.448127       -12.1941
 242   2.0000      -0.447522       -12.1777
 243   2.0000      -0.444572       -12.0974
 244   2.0000      -0.444037       -12.0829
 245   2.0000      -0.439042       -11.9470
 246   2.0000      -0.435935       -11.8624
 247   2.0000      -0.434637       -11.8271
 248   2.0000      -0.433880       -11.8065
 249   2.0000      -0.433367       -11.7925
 250   2.0000      -0.432575       -11.7710
 251   2.0000      -0.427933       -11.6446
 252   2.0000      -0.423969       -11.5368
 253   2.0000      -0.423263       -11.5176
 254   2.0000      -0.414732       -11.2854
 255   2.0000      -0.412155       -11.2153
 256   2.0000      -0.410569       -11.1721
 257   2.0000      -0.383999       -10.4492
 258   2.0000      -0.372197       -10.1280
 259   2.0000      -0.370981       -10.0949
 260   2.0000      -0.367307        -9.9949
 261   2.0000      -0.367073        -9.9886
 262   2.0000      -0.363539        -9.8924
 263   2.0000      -0.362148        -9.8545
 264   2.0000      -0.361983        -9.8501
 265   2.0000      -0.360580        -9.8119
 266   2.0000      -0.356613        -9.7039
 267   2.0000      -0.354580        -9.6486
 268   2.0000      -0.345584        -9.4038
 269   2.0000      -0.338815        -9.2196
 270   2.0000      -0.323802        -8.8111
 271   2.0000      -0.286883        -7.8065
 272   2.0000      -0.262846        -7.1524
 273   0.0000      -0.075913        -2.0657
 274   0.0000      -0.061273        -1.6673
 275   0.0000      -0.039467        -1.0739
 276   0.0000      -0.031164        -0.8480
 277   0.0000      -0.021848        -0.5945

MULLIKEN ATOMIC CHARGES
-----------------------
   0 C :    0.235262
   1 O :   -0.209213
   2 C :   -0.065249
   3 C :   -0.026752
   4 C :    0.014185
   5 C :    0.014388
   6 C :   -0.036375
   7 C :    0.011819
   8 C :    0.292438
   9 C :   -0.383766
  10 C :   -0.129328
  11 N :    0.090991
  12 C :   -0.129856
  13 N :    0.103371
  14 C :   -0.150605
  15 C :    0.000294
  16 C :    0.225331
  17 O :   -0.192620
  18 C :   -0.064032
  19 C :   -0.025179
  20 C :    0.011645
  21 C :    0.012918
  22 C :   -0.029648
  23 C :    0.009447
  24 C :    0.282927
  25 C :   -0.383689
  26 C :   -0.128532
  27 N :    0.098013
  28 C :   -0.129260
  29 N :    0.099459
  30 C :   -0.141763
  31 C :    0.064784
  32 C :   -0.158659
  33 S :    0.171859
  34 C :   -0.054178
  35 C :   -0.025168
  36 C :    0.014159
  37 C :   -0.069992
  38 C :    0.020337
  39 C :   -0.192826
  40 S :    0.184148
  41 C :   -0.114834
  42 C :   -0.064647
  43 C :    0.069867
  44 C :    0.163824
  45 C :    0.154331
  46 C :    0.032614
  47 C :   -0.002587
  48 C :   -0.053605
  49 N :   -0.093556
  50 N :   -0.077667
  51 N :   -0.106565
  52 C :   -0.129132
  53 S :    0.188277
  54 C :   -0.080475
  55 C :    0.015920
  56 C :   -0.042869
  57 C :   -0.045796
  58 C :    0.026621
  59 C :   -0.185257
  60 S :    0.220497
  61 C :   -0.092261
  62 C :   -0.064912
  63 F :   -0.189221
  64 C :    0.040192
  65 C :   -0.018664
  66 C :    0.013899
  67 C :   -0.016629
  68 C :    0.028238
  69 C :   -0.018173
  70 C :    0.018417
  71 C :   -0.024429
  72 C :    0.108575
  73 C :   -0.074766
  74 F :   -0.189712
  75 H :    0.024530
  76 H :    0.027934
  77 H :    0.028840
  78 H :    0.029835
  79 H :    0.026304
  80 H :    0.022230
  81 H :    0.029153
  82 H :    0.029045
  83 H :    0.029722
  84 H :    0.024543
  85 H :    0.035928
  86 H :    0.025751
  87 H :    0.013512
  88 H :    0.031466
  89 H :    0.023385
  90 H :    0.032463
  91 H :    0.029342
  92 H :    0.041467
  93 H :    0.035169
  94 H :    0.025011
  95 H :    0.034346
  96 H :    0.039305
  97 H :    0.034668
  98 H :    0.039869
  99 H :    0.033621
 100 H :    0.033708
 101 H :    0.030297
 102 H :    0.040582
 103 H :    0.032396
 104 H :    0.032710
 105 H :    0.034113
 106 H :    0.042965
 107 H :    0.037685
 108 H :    0.037957
 109 H :    0.069441
 110 H :    0.062332
 111 H :    0.063672
 112 H :    0.056021
 113 H :    0.052086
Sum of atomic charges:   -0.0000000

LOEWDIN ATOMIC CHARGES
----------------------
   0 C :    0.092215
   1 O :   -0.172757
   2 C :   -0.047815
   3 C :    0.010868
   4 C :   -0.006312
   5 C :   -0.003461
   6 C :    0.000879
   7 C :   -0.018054
   8 C :    0.082987
   9 C :   -0.154988
  10 C :   -0.014103
  11 N :   -0.064325
  12 C :   -0.013475
  13 N :   -0.061789
  14 C :   -0.133350
  15 C :    0.062510
  16 C :    0.096763
  17 O :   -0.153813
  18 C :   -0.048106
  19 C :    0.010375
  20 C :   -0.006587
  21 C :   -0.003422
  22 C :    0.001106
  23 C :   -0.018991
  24 C :    0.082213
  25 C :   -0.153552
  26 C :   -0.018590
  27 N :   -0.059392
  28 C :   -0.012733
  29 N :   -0.061614
  30 C :   -0.121063
  31 C :    0.053360
  32 C :   -0.186543
  33 S :    0.452758
  34 C :   -0.163661
  35 C :   -0.045522
  36 C :    0.000766
  37 C :   -0.207353
  38 C :   -0.025589
  39 C :   -0.038264
  40 S :    0.473552
  41 C :   -0.157191
  42 C :   -0.050791
  43 C :   -0.072174
  44 C :    0.073252
  45 C :    0.063170
  46 C :   -0.067861
  47 C :   -0.043630
  48 C :   -0.053326
  49 N :   -0.085212
  50 N :    0.160722
  51 N :   -0.100596
  52 C :   -0.161491
  53 S :    0.458450
  54 C :   -0.206951
  55 C :   -0.023923
  56 C :   -0.044985
  57 C :   -0.167452
  58 C :   -0.050870
  59 C :   -0.038549
  60 S :    0.508833
  61 C :   -0.194834
  62 C :   -0.011930
  63 F :   -0.054917
  64 C :   -0.011895
  65 C :   -0.060875
  66 C :   -0.017947
  67 C :   -0.057922
  68 C :   -0.012427
  69 C :   -0.061255
  70 C :   -0.015894
  71 C :   -0.058679
  72 C :    0.036336
  73 C :   -0.058636
  74 F :   -0.050786
  75 H :    0.042255
  76 H :    0.036758
  77 H :    0.038518
  78 H :    0.041646
  79 H :    0.051377
  80 H :    0.041216
  81 H :    0.036977
  82 H :    0.038563
  83 H :    0.041587
  84 H :    0.043581
  85 H :    0.036839
  86 H :    0.032725
  87 H :    0.031338
  88 H :    0.040189
  89 H :    0.023511
  90 H :    0.030357
  91 H :    0.023665
  92 H :    0.032568
  93 H :    0.026054
  94 H :    0.024428
  95 H :    0.024851
  96 H :    0.026723
  97 H :    0.028038
  98 H :    0.027904
  99 H :    0.027370
 100 H :    0.030203
 101 H :    0.023954
 102 H :    0.032684
 103 H :    0.025288
 104 H :    0.027579
 105 H :    0.024409
 106 H :    0.027466
 107 H :    0.029041
 108 H :    0.026832
 109 H :    0.042376
 110 H :    0.040277
 111 H :    0.035926
 112 H :    0.037983
 113 H :    0.034056

  Mayer bond orders larger than 0.100000
B(  0-C ,  1-O ) :   2.1097 B(  0-C ,  2-C ) :   0.9663 B(  0-C , 14-C ) :   0.9845
B(  2-C ,  3-C ) :   1.4085 B(  2-C ,  7-C ) :   1.3359 B(  3-C ,  4-C ) :   1.3527
B(  3-C , 75-H ) :   1.0049 B(  4-C ,  5-C ) :   1.3936 B(  4-C , 76-H ) :   0.9903
B(  5-C ,  6-C ) :   1.3814 B(  5-C , 77-H ) :   0.9861 B(  6-C ,  7-C ) :   1.3973
B(  6-C , 78-H ) :   0.9834 B(  7-C ,  8-C ) :   0.9968 B(  8-C ,  9-C ) :   1.6244
B(  8-C , 14-C ) :   1.1073 B(  9-C , 10-C ) :   1.1358 B(  9-C , 12-C ) :   1.1325
B( 10-C , 11-N ) :   2.9532 B( 12-C , 13-N ) :   2.9722 B( 14-C , 15-C ) :   1.4975
B( 15-C , 61-C ) :   1.3143 B( 15-C , 79-H ) :   0.9397 B( 16-C , 17-O ) :   2.1347
B( 16-C , 18-C ) :   0.9638 B( 16-C , 30-C ) :   0.9528 B( 18-C , 19-C ) :   1.4084
B( 18-C , 23-C ) :   1.3346 B( 19-C , 20-C ) :   1.3573 B( 19-C , 80-H ) :   1.0037
B( 20-C , 21-C ) :   1.3890 B( 20-C , 81-H ) :   0.9904 B( 21-C , 22-C ) :   1.3860
B( 21-C , 82-H ) :   0.9863 B( 22-C , 23-C ) :   1.3937 B( 22-C , 83-H ) :   0.9829
B( 23-C , 24-C ) :   0.9978 B( 24-C , 25-C ) :   1.6240 B( 24-C , 30-C ) :   1.1023
B( 25-C , 26-C ) :   1.1281 B( 25-C , 28-C ) :   1.1345 B( 26-C , 27-N ) :   2.9634
B( 28-C , 29-N ) :   2.9699 B( 30-C , 31-C ) :   1.5850 B( 31-C , 32-C ) :   1.2682
B( 31-C , 84-H ) :   0.9110 B( 32-C , 33-S ) :   1.0773 B( 32-C , 36-C ) :   1.3723
B( 33-S , 34-C ) :   1.1391 B( 34-C , 35-C ) :   1.4518 B( 34-C , 37-C ) :   1.2169
B( 35-C , 36-C ) :   1.3723 B( 35-C , 39-C ) :   0.9320 B( 36-C , 85-H ) :   0.9822
B( 37-C , 38-C ) :   1.5052 B( 37-C , 40-S ) :   1.0672 B( 38-C , 39-C ) :   0.9251
B( 38-C , 42-C ) :   1.3311 B( 39-C , 68-C ) :   1.0192 B( 39-C , 70-C ) :   1.0266
B( 40-S , 41-C ) :   1.1351 B( 41-C , 42-C ) :   1.4613 B( 41-C , 43-C ) :   1.1269
B( 42-C , 86-H ) :   0.9980 B( 43-C , 44-C ) :   1.3978 B( 43-C , 46-C ) :   0.1075
B( 43-C , 48-C ) :   1.1718 B( 44-C , 45-C ) :   1.2070 B( 44-C , 74-F ) :   1.1056
B( 45-C , 46-C ) :   1.3929 B( 45-C , 63-F ) :   1.1081 B( 46-C , 47-C ) :   1.1916
B( 46-C , 52-C ) :   1.1444 B( 47-C , 48-C ) :   1.2353 B( 47-C , 49-N ) :   1.4623
B( 48-C , 51-N ) :   1.4553 B( 49-N , 50-N ) :   1.2420 B( 49-N , 51-N ) :   0.1591
B( 50-N , 51-N ) :   1.2430 B( 50-N , 72-C ) :   0.9054 B( 52-C , 53-S ) :   1.1192
B( 52-C , 56-C ) :   1.4719 B( 53-S , 54-C ) :   1.0710 B( 54-C , 55-C ) :   1.5024
B( 54-C , 57-C ) :   1.2248 B( 55-C , 56-C ) :   1.3157 B( 55-C , 59-C ) :   0.9374
B( 56-C , 87-H ) :   0.9941 B( 57-C , 58-C ) :   1.4294 B( 57-C , 60-S ) :   1.1101
B( 58-C , 59-C ) :   0.9099 B( 58-C , 62-C ) :   1.4043 B( 59-C , 64-C ) :   1.0153
B( 59-C , 66-C ) :   1.0336 B( 60-S , 61-C ) :   1.0695 B( 61-C , 62-C ) :   1.3166
B( 62-C , 88-H ) :   1.0117 B( 64-C , 65-C ) :   1.0980 B( 64-C , 89-H ) :   0.9453
B( 64-C , 90-H ) :   0.9465 B( 65-C , 91-H ) :   0.9675 B( 65-C , 92-H ) :   0.9673
B( 65-C , 93-H ) :   0.9669 B( 66-C , 67-C ) :   1.0894 B( 66-C , 94-H ) :   0.9479
B( 66-C , 95-H ) :   0.9466 B( 67-C , 96-H ) :   0.9662 B( 67-C , 97-H ) :   0.9703
B( 67-C , 98-H ) :   0.9697 B( 68-C , 69-C ) :   1.0989 B( 68-C , 99-H ) :   0.9440
B( 68-C ,100-H ) :   0.9482 B( 69-C ,101-H ) :   0.9671 B( 69-C ,102-H ) :   0.9666
B( 69-C ,103-H ) :   0.9665 B( 70-C , 71-C ) :   1.0870 B( 70-C ,104-H ) :   0.9494
B( 70-C ,105-H ) :   0.9475 B( 71-C ,106-H ) :   0.9669 B( 71-C ,107-H ) :   0.9706
B( 71-C ,108-H ) :   0.9703 B( 72-C , 73-C ) :   1.0939 B( 72-C ,109-H ) :   0.9515
B( 72-C ,110-H ) :   0.9496 B( 73-C ,111-H ) :   0.9707 B( 73-C ,112-H ) :   0.9720
B( 73-C ,113-H ) :   0.9695

-----------------------------------------------------------------------------
         ABSORPTION SPECTRUM VIA TRANSITION ELECTRIC DIPOLE MOMENTS
-----------------------------------------------------------------------------
State   Energy  Wavelength   fosc         T2         TX        TY        TZ
        (cm-1)    (nm)                  (au**2)     (au)      (au)      (au)
-----------------------------------------------------------------------------
   0   17573.3    569.0   3.852452625  72.17063  -3.83925  -1.28700   7.46823
   1   23488.1    425.7   0.291102613   4.08013   1.73205  -0.76262   0.70608
   2   28577.1    349.9   0.008642899   0.09957   0.01432   0.31213   0.04405
   3   29587.4    338.0   0.055181430   0.61399  -0.47305  -0.58318  -0.22386
   4   30929.1    323.3   0.129001904   1.37311   0.66054   0.83006  -0.49780
   5   31836.9    314.1   0.005295848   0.05476   0.11002   0.10152   0.17987
   6   34052.6    293.7   0.007304678   0.07062   0.00051   0.14324   0.22383
   7   34523.7    289.7   0.024103852   0.22985  -0.10927  -0.15472   0.44042
   8   35657.4    280.4   0.791300264   7.30580  -0.63329  -2.26348  -1.33469
   9   37070.0    269.8   0.020371745   0.18092   0.06897   0.12589  -0.40039
  10   38538.4    259.5   0.037696720   0.32202  -0.04885   0.56453   0.03064
  11   38746.5    258.1   0.047911720   0.40708  -0.23945  -0.58370  -0.09508
  12   39112.7    255.7   0.291356745   2.45235  -0.29774  -1.48410  -0.40143
  13   39674.3    252.1   0.194134470   1.61090   0.20349   0.97515   0.78649
  14   40011.3    249.9   0.445090655   3.66220   0.01870  -1.63183  -0.99949

Dispersion correction           -0.068553456
FINAL SINGLE POINT ENERGY     -4632.343493692679

DIPOLE MOMENT
-------------
                                X             Y             Z
Electronic contribution:     10.40327      11.20471      -0.40723
Nuclear contribution   :    -11.05414      -9.37066       1.28039
                        -----------------------------------------
Total Dipole Moment    :     -0.65087       1.83405       0.87316
                        -----------------------------------------
Magnitude (a.u.)       :      2.13302
Magnitude (Debye)      :      5.42170

Rotational constants in cm-1:     0.002136     0.000193     0.000186
Rotational constants in MHz :    64.029955     5.789092     5.574372

                             ****ORCA TERMINATED NORMALLY****
TOTAL RUN TIME: 0 days 0 hours 17 minutes 13 seconds 640 msec
