                         Program Version 4.2.0 -  RELEASE  -
|  1> # ORCA input file
|  2> # SCF done       -207.726078633724          0.000769634567
|  3> ! wb97x-d3 def2-SVP def2/J RIJCOSX Grid4 TightSCF
|  4> %maxcore 5000
|  5> %tddft
|  6>     Mode sTDDFT
|  7>     Ethresh 5.0
|  8>     maxcore 5000
|  9> end
| 10>
| 11> %pal
| 12>   nprocs 6
| 13>   end
| 14> * xyz 0 1
| 15>    C       -1.96757         4.27431        -0.76766
| 16>    O       -2.66114         4.50251         0.20763
| 17>    C       -0.82531         5.08222        -1.23573
| 18>    C       -0.29566         6.23211        -0.68252
| 19>    C        0.79941         6.81743        -1.29881
| 20>    C        1.32137         6.23205        -2.44226
| 21>    C        0.80416         5.07829        -3.01721
| 22>    C       -0.28961         4.49833        -2.39730
| 23>    C       -1.06653         3.29991        -2.72481
| 24>    C       -0.84097         2.48689        -3.80622
| 25>    C       -1.58108         1.33449        -4.14217
| 26>    N       -2.12742         0.38565        -4.49157
| 27>    C        0.18237         2.69626        -4.75503
| 28>    N        0.99339         2.80700        -5.55974
| 29>    C       -2.08750         3.15751        -1.70928
| 30>    F        2.38423         6.80921        -3.02606
| 31>    C       -3.00194         2.13376        -1.62644
| 32>    C      -16.63967         0.69541        16.33398
| 33>    O      -16.57573        -0.23756        15.55682
| 34>    C      -17.56332         0.77782        17.48321
| 35>    C      -18.51635        -0.14072        17.88062
| 36>    C      -19.28830         0.14823        18.99423
| 37>    C      -19.07924         1.34384        19.66524
| 38>    C      -18.12605         2.27928        19.28597
| 39>    C      -17.35550         1.98225        18.17391
| 40>    C      -16.27755         2.71938        17.51279
| 41>    C      -15.74927         3.89835        17.97177
| 42>    C      -14.66748         4.61236        17.41278
| 43>    N      -13.79039         5.25913        17.04880
| 44>    C      -16.20954         4.57621        19.12139
| 45>    N      -16.53099         5.18440        20.04029
| 46>    C      -15.86702         1.95415        16.34886
| 47>    F      -19.83991         1.61282        20.73909
| 48>    C      -14.96183         2.42007        15.42453
| 49>    C      -14.43587         1.85025        14.25794
| 50>    S      -13.34904         2.88350        13.31678
| 51>    C      -13.15010         1.64116        12.16802
| 52>    C      -13.88307         0.48164        12.48196
| 53>    C      -14.58890         0.59762        13.66003
| 54>    C      -12.43727         1.42463        10.97202
| 55>    C      -12.70624         0.13241        10.51048
| 56>    C      -13.67441        -0.57920        11.42697
| 57>    S      -11.36149         2.28441         9.95442
| 58>    C      -11.27821         0.90709         8.87757
| 59>    C      -12.05441        -0.15561         9.32290
| 60>    C      -10.49612         0.93505         7.68272
| 61>    C       -9.67689         1.99550         7.30909
| 62>    C       -8.91352         2.01935         6.13761
| 63>    C       -8.89356         0.99121         5.20035
| 64>    C       -9.72800        -0.10408         5.54680
| 65>    C      -10.49508        -0.13460         6.74980
| 66>    N       -9.96614        -1.25216         4.89802
| 67>    N      -10.80358        -1.89422         5.66267
| 68>    N      -11.15684        -1.29944         6.76690
| 69>    C       -8.11059         1.00945         4.00626
| 70>    S       -7.00141         2.31438         3.64605
| 71>    C       -6.54178         1.52703         2.19725
| 72>    C       -7.23106         0.32618         1.98850
| 73>    C       -8.10660         0.03034         3.01994
| 74>    C       -5.60991         1.72312         1.15650
| 75>    C       -5.70737         0.63541         0.26845
| 76>    C       -6.78903        -0.32816         0.70180
| 77>    S       -4.40734         2.85718         0.72071
| 78>    C       -4.00160         1.87754        -0.68424
| 79>    C       -4.81120         0.72993        -0.76593
| 80>    F       -8.16643         3.11931         5.93033
| 81>    C       -7.90342        -0.30666        -0.36776
| 82>    C       -9.14270        -1.12041        -0.02104
| 83>    C       -6.24462        -1.74572         0.93373
| 84>    C       -5.05926        -1.76859         1.89179
| 85>    C      -14.96768        -0.86202        10.63056
| 86>    C      -16.09041        -1.50925        11.43022
| 87>    C      -13.07568        -1.86561        12.01761
| 88>    C      -11.72370        -1.63516        12.68278
| 89>    C      -11.27351        -3.20949         5.33227
| 90>    C      -10.29031        -4.26621         5.82730
| 91>    F       -9.58840         3.07662         8.10579
| 92>    H       -0.73145         6.65460         0.20929
| 93>    H        1.25386         7.71449        -0.90922
| 94>    H        1.26192         4.67888        -3.90681
| 95>    H       -2.95084         1.37806        -2.40096
| 96>    H      -18.64649        -1.05820        17.32822
| 97>    H      -20.04625        -0.53201        19.34885
| 98>    H      -18.02105         3.18777        19.85484
| 99>    H      -14.58773         3.42096        15.60506
|100>    H      -15.19580        -0.16620        14.10937
|101>    H      -12.11129        -1.07865         8.77759
|102>    H       -8.71878        -0.84769         3.10259
|103>    H       -4.69853         0.01734        -1.56391
|104>    H       -8.19594         0.73433        -0.52576
|105>    H       -7.47646        -0.67607        -1.30237
|106>    H       -9.59258        -0.76551         0.90187
|107>    H       -9.87513        -1.01736        -0.81842
|108>    H       -8.90598        -2.17558         0.08391
|109>    H       -7.04336        -2.36450         1.34364
|110>    H       -5.94457        -2.16495        -0.02848
|111>    H       -5.34085        -1.36186         2.86047
|112>    H       -4.71564        -2.79017         2.03500
|113>    H       -4.23234        -1.18109         1.50012
|114>    H      -15.32325         0.08715        10.22159
|115>    H      -14.70382        -1.50636         9.78891
|116>    H      -16.37973        -0.88866        12.27294
|117>    H      -16.95981        -1.63651        10.78890
|118>    H      -15.79973        -2.48850        11.79983
|119>    H      -13.77026        -2.26414        12.75713
|120>    H      -12.96754        -2.59789        11.21498
|121>    H      -11.81007        -0.90911        13.48793
|122>    H      -11.35295        -2.56715        13.10256
|123>    H      -10.99375        -1.26796        11.96494
|124>    H      -12.24709        -3.33673         5.80872
|125>    H      -11.37681        -3.26284         4.24684
|126>    H      -10.17747        -4.20017         6.90662
|127>    H      -10.65646        -5.25670         5.57380
|128>    H       -9.31807        -4.12146         5.36291
|129> *
|130>
|131>                          ****END OF INPUT****

CARTESIAN COORDINATES (ANGSTROEM)
---------------------------------
  C     -1.967570    4.274310   -0.767660
  O     -2.661140    4.502510    0.207630
  C     -0.825310    5.082220   -1.235730
  C     -0.295660    6.232110   -0.682520
  C      0.799410    6.817430   -1.298810
  C      1.321370    6.232050   -2.442260
  C      0.804160    5.078290   -3.017210
  C     -0.289610    4.498330   -2.397300
  C     -1.066530    3.299910   -2.724810
  C     -0.840970    2.486890   -3.806220
  C     -1.581080    1.334490   -4.142170
  N     -2.127420    0.385650   -4.491570
  C      0.182370    2.696260   -4.755030
  N      0.993390    2.807000   -5.559740
  C     -2.087500    3.157510   -1.709280
  F      2.384230    6.809210   -3.026060
  C     -3.001940    2.133760   -1.626440
  C    -16.639670    0.695410   16.333980
  O    -16.575730   -0.237560   15.556820
  C    -17.563320    0.777820   17.483210
  C    -18.516350   -0.140720   17.880620
  C    -19.288300    0.148230   18.994230
  C    -19.079240    1.343840   19.665240
  C    -18.126050    2.279280   19.285970
  C    -17.355500    1.982250   18.173910
  C    -16.277550    2.719380   17.512790
  C    -15.749270    3.898350   17.971770
  C    -14.667480    4.612360   17.412780
  N    -13.790390    5.259130   17.048800
  C    -16.209540    4.576210   19.121390
  N    -16.530990    5.184400   20.040290
  C    -15.867020    1.954150   16.348860
  F    -19.839910    1.612820   20.739090
  C    -14.961830    2.420070   15.424530
  C    -14.435870    1.850250   14.257940
  S    -13.349040    2.883500   13.316780
  C    -13.150100    1.641160   12.168020
  C    -13.883070    0.481640   12.481960
  C    -14.588900    0.597620   13.660030
  C    -12.437270    1.424630   10.972020
  C    -12.706240    0.132410   10.510480
  C    -13.674410   -0.579200   11.426970
  S    -11.361490    2.284410    9.954420
  C    -11.278210    0.907090    8.877570
  C    -12.054410   -0.155610    9.322900
  C    -10.496120    0.935050    7.682720
  C     -9.676890    1.995500    7.309090
  C     -8.913520    2.019350    6.137610
  C     -8.893560    0.991210    5.200350
  C     -9.728000   -0.104080    5.546800
  C    -10.495080   -0.134600    6.749800
  N     -9.966140   -1.252160    4.898020
  N    -10.803580   -1.894220    5.662670
  N    -11.156840   -1.299440    6.766900
  C     -8.110590    1.009450    4.006260
  S     -7.001410    2.314380    3.646050
  C     -6.541780    1.527030    2.197250
  C     -7.231060    0.326180    1.988500
  C     -8.106600    0.030340    3.019940
  C     -5.609910    1.723120    1.156500
  C     -5.707370    0.635410    0.268450
  C     -6.789030   -0.328160    0.701800
  S     -4.407340    2.857180    0.720710
  C     -4.001600    1.877540   -0.684240
  C     -4.811200    0.729930   -0.765930
  F     -8.166430    3.119310    5.930330
  C     -7.903420   -0.306660   -0.367760
  C     -9.142700   -1.120410   -0.021040
  C     -6.244620   -1.745720    0.933730
  C     -5.059260   -1.768590    1.891790
  C    -14.967680   -0.862020   10.630560
  C    -16.090410   -1.509250   11.430220
  C    -13.075680   -1.865610   12.017610
  C    -11.723700   -1.635160   12.682780
  C    -11.273510   -3.209490    5.332270
  C    -10.290310   -4.266210    5.827300
  F     -9.588400    3.076620    8.105790
  H     -0.731450    6.654600    0.209290
  H      1.253860    7.714490   -0.909220
  H      1.261920    4.678880   -3.906810
  H     -2.950840    1.378060   -2.400960
  H    -18.646490   -1.058200   17.328220
  H    -20.046250   -0.532010   19.348850
  H    -18.021050    3.187770   19.854840
  H    -14.587730    3.420960   15.605060
  H    -15.195800   -0.166200   14.109370
  H    -12.111290   -1.078650    8.777590
  H     -8.718780   -0.847690    3.102590
  H     -4.698530    0.017340   -1.563910
  H     -8.195940    0.734330   -0.525760
  H     -7.476460   -0.676070   -1.302370
  H     -9.592580   -0.765510    0.901870
  H     -9.875130   -1.017360   -0.818420
  H     -8.905980   -2.175580    0.083910
  H     -7.043360   -2.364500    1.343640
  H     -5.944570   -2.164950   -0.028480
  H     -5.340850   -1.361860    2.860470
  H     -4.715640   -2.790170    2.035000
  H     -4.232340   -1.181090    1.500120
  H    -15.323250    0.087150   10.221590
  H    -14.703820   -1.506360    9.788910
  H    -16.379730   -0.888660   12.272940
  H    -16.959810   -1.636510   10.788900
  H    -15.799730   -2.488500   11.799830
  H    -13.770260   -2.264140   12.757130
  H    -12.967540   -2.597890   11.214980
  H    -11.810070   -0.909110   13.487930
  H    -11.352950   -2.567150   13.102560
  H    -10.993750   -1.267960   11.964940
  H    -12.247090   -3.336730    5.808720
  H    -11.376810   -3.262840    4.246840
  H    -10.177470   -4.200170    6.906620
  H    -10.656460   -5.256700    5.573800
  H     -9.318070   -4.121460    5.362910

 Total Charge           Charge          ....    0
 Multiplicity           Mult            ....    1
 Number of Electrons    NEL             ....  562
 Basis Dimension        Dim             .... 1279

ORBITAL ENERGIES
----------------

  NO   OCC          E(Eh)            E(eV)
   0   2.0000     -88.999299     -2421.7941
   1   2.0000     -88.997397     -2421.7423
   2   2.0000     -88.995724     -2421.6968
   3   2.0000     -88.993200     -2421.6281
   4   2.0000     -24.841937      -675.9835
   5   2.0000     -24.841444      -675.9700
   6   2.0000     -24.819885      -675.3834
   7   2.0000     -24.819353      -675.3689
   8   2.0000     -19.252467      -523.8862
   9   2.0000     -19.252173      -523.8783
  10   2.0000     -14.595481      -397.1632
  11   2.0000     -14.500529      -394.5795
  12   2.0000     -14.500485      -394.5783
  13   2.0000     -14.450159      -393.2088
  14   2.0000     -14.448430      -393.1618
  15   2.0000     -14.444681      -393.0598
  16   2.0000     -14.444374      -393.0514
  17   2.0000     -10.419951      -283.5413
  18   2.0000     -10.419280      -283.5230
  19   2.0000     -10.408200      -283.2215
  20   2.0000     -10.407695      -283.2078
  21   2.0000     -10.401600      -283.0419
  22   2.0000     -10.399315      -282.9798
  23   2.0000     -10.375993      -282.3451
  24   2.0000     -10.375693      -282.3369
  25   2.0000     -10.373563      -282.2790
  26   2.0000     -10.372662      -282.2545
  27   2.0000     -10.372528      -282.2508
  28   2.0000     -10.362381      -281.9747
  29   2.0000     -10.361989      -281.9641
  30   2.0000     -10.361353      -281.9468
  31   2.0000     -10.359268      -281.8900
  32   2.0000     -10.357531      -281.8427
  33   2.0000     -10.357141      -281.8321
  34   2.0000     -10.357021      -281.8289
  35   2.0000     -10.356565      -281.8165
  36   2.0000     -10.355140      -281.7777
  37   2.0000     -10.351566      -281.6804
  38   2.0000     -10.349644      -281.6281
  39   2.0000     -10.349516      -281.6246
  40   2.0000     -10.348832      -281.6060
  41   2.0000     -10.347555      -281.5713
  42   2.0000     -10.346361      -281.5388
  43   2.0000     -10.345981      -281.5285
  44   2.0000     -10.345173      -281.5065
  45   2.0000     -10.344989      -281.5014
  46   2.0000     -10.344971      -281.5010
  47   2.0000     -10.343840      -281.4702
  48   2.0000     -10.334319      -281.2111
  49   2.0000     -10.333882      -281.1992
  50   2.0000     -10.333601      -281.1916
  51   2.0000     -10.333101      -281.1780
  52   2.0000     -10.330380      -281.1039
  53   2.0000     -10.329678      -281.0848
  54   2.0000     -10.329583      -281.0822
  55   2.0000     -10.329260      -281.0735
  56   2.0000     -10.328680      -281.0577
  57   2.0000     -10.327016      -281.0124
  58   2.0000     -10.323366      -280.9131
  59   2.0000     -10.323099      -280.9058
  60   2.0000     -10.322582      -280.8917
  61   2.0000     -10.322499      -280.8895
  62   2.0000     -10.321494      -280.8621
  63   2.0000     -10.321163      -280.8531
  64   2.0000     -10.320505      -280.8352
  65   2.0000     -10.319149      -280.7983
  66   2.0000     -10.318080      -280.7692
  67   2.0000     -10.317422      -280.7513
  68   2.0000     -10.315913      -280.7103
  69   2.0000     -10.308711      -280.5143
  70   2.0000     -10.308357      -280.5046
  71   2.0000     -10.308167      -280.4995
  72   2.0000     -10.307873      -280.4915
  73   2.0000     -10.293931      -280.1121
  74   2.0000     -10.290288      -280.0130
  75   2.0000     -10.288611      -279.9673
  76   2.0000     -10.288102      -279.9535
  77   2.0000      -8.112806      -220.7607
  78   2.0000      -8.110332      -220.6933
  79   2.0000      -8.108813      -220.6520
  80   2.0000      -8.104655      -220.5389
  81   2.0000      -6.072141      -165.2313
  82   2.0000      -6.069957      -165.1719
  83   2.0000      -6.068385      -165.1291
  84   2.0000      -6.068151      -165.1228
  85   2.0000      -6.065582      -165.0529
  86   2.0000      -6.065289      -165.0449
  87   2.0000      -6.064348      -165.0193
  88   2.0000      -6.064010      -165.0101
  89   2.0000      -6.062630      -164.9726
  90   2.0000      -6.061163      -164.9326
  91   2.0000      -6.059685      -164.8924
  92   2.0000      -6.057020      -164.8199
  93   2.0000      -1.371428       -37.3184
  94   2.0000      -1.353665       -36.8351
  95   2.0000      -1.342620       -36.5345
  96   2.0000      -1.342128       -36.5212
  97   2.0000      -1.280108       -34.8335
  98   2.0000      -1.170432       -31.8491
  99   2.0000      -1.168803       -31.8047
 100   2.0000      -1.063807       -28.9477
 101   2.0000      -1.061102       -28.8741
 102   2.0000      -1.054971       -28.7072
 103   2.0000      -1.054733       -28.7008
 104   2.0000      -1.052503       -28.6401
 105   2.0000      -1.047592       -28.5064
 106   2.0000      -1.035376       -28.1740
 107   2.0000      -1.034856       -28.1599
 108   2.0000      -1.028045       -27.9745
 109   2.0000      -1.027330       -27.9551
 110   2.0000      -1.023565       -27.8526
 111   2.0000      -1.019718       -27.7479
 112   2.0000      -0.991859       -26.9899
 113   2.0000      -0.989651       -26.9298
 114   2.0000      -0.986796       -26.8521
 115   2.0000      -0.978308       -26.6211
 116   2.0000      -0.971589       -26.4383
 117   2.0000      -0.943420       -25.6718
 118   2.0000      -0.939745       -25.5718
 119   2.0000      -0.937715       -25.5165
 120   2.0000      -0.929290       -25.2873
 121   2.0000      -0.924975       -25.1698
 122   2.0000      -0.906681       -24.6720
 123   2.0000      -0.903328       -24.5808
 124   2.0000      -0.900425       -24.5018
 125   2.0000      -0.895611       -24.3708
 126   2.0000      -0.889898       -24.2153
 127   2.0000      -0.883666       -24.0458
 128   2.0000      -0.881745       -23.9935
 129   2.0000      -0.880627       -23.9631
 130   2.0000      -0.879765       -23.9396
 131   2.0000      -0.877729       -23.8842
 132   2.0000      -0.875719       -23.8295
 133   2.0000      -0.857356       -23.3299
 134   2.0000      -0.843382       -22.9496
 135   2.0000      -0.834339       -22.7035
 136   2.0000      -0.812283       -22.1033
 137   2.0000      -0.806392       -21.9430
 138   2.0000      -0.805515       -21.9192
 139   2.0000      -0.805151       -21.9093
 140   2.0000      -0.800373       -21.7792
 141   2.0000      -0.792776       -21.5725
 142   2.0000      -0.788952       -21.4685
 143   2.0000      -0.776447       -21.1282
 144   2.0000      -0.758977       -20.6528
 145   2.0000      -0.756932       -20.5972
 146   2.0000      -0.739256       -20.1162
 147   2.0000      -0.738199       -20.0874
 148   2.0000      -0.736621       -20.0445
 149   2.0000      -0.734758       -19.9938
 150   2.0000      -0.731544       -19.9063
 151   2.0000      -0.727062       -19.7844
 152   2.0000      -0.723506       -19.6876
 153   2.0000      -0.721736       -19.6394
 154   2.0000      -0.715010       -19.4564
 155   2.0000      -0.708210       -19.2714
 156   2.0000      -0.696825       -18.9616
 157   2.0000      -0.692150       -18.8344
 158   2.0000      -0.686602       -18.6834
 159   2.0000      -0.681261       -18.5380
 160   2.0000      -0.677733       -18.4420
 161   2.0000      -0.672453       -18.2984
 162   2.0000      -0.671039       -18.2599
 163   2.0000      -0.667752       -18.1704
 164   2.0000      -0.665554       -18.1106
 165   2.0000      -0.663231       -18.0474
 166   2.0000      -0.662318       -18.0226
 167   2.0000      -0.658493       -17.9185
 168   2.0000      -0.656014       -17.8510
 169   2.0000      -0.651853       -17.7378
 170   2.0000      -0.648939       -17.6585
 171   2.0000      -0.638374       -17.3710
 172   2.0000      -0.633545       -17.2396
 173   2.0000      -0.629304       -17.1242
 174   2.0000      -0.624819       -17.0022
 175   2.0000      -0.616938       -16.7877
 176   2.0000      -0.608896       -16.5689
 177   2.0000      -0.608427       -16.5561
 178   2.0000      -0.602205       -16.3868
 179   2.0000      -0.598178       -16.2772
 180   2.0000      -0.595769       -16.2117
 181   2.0000      -0.595482       -16.2039
 182   2.0000      -0.595146       -16.1947
 183   2.0000      -0.591621       -16.0988
 184   2.0000      -0.589906       -16.0522
 185   2.0000      -0.589429       -16.0392
 186   2.0000      -0.586334       -15.9550
 187   2.0000      -0.582818       -15.8593
 188   2.0000      -0.581030       -15.8106
 189   2.0000      -0.579184       -15.7604
 190   2.0000      -0.574294       -15.6273
 191   2.0000      -0.573360       -15.6019
 192   2.0000      -0.570046       -15.5117
 193   2.0000      -0.569309       -15.4917
 194   2.0000      -0.568973       -15.4825
 195   2.0000      -0.567336       -15.4380
 196   2.0000      -0.564675       -15.3656
 197   2.0000      -0.561900       -15.2901
 198   2.0000      -0.560213       -15.2442
 199   2.0000      -0.559625       -15.2282
 200   2.0000      -0.557120       -15.1600
 201   2.0000      -0.551552       -15.0085
 202   2.0000      -0.545643       -14.8477
 203   2.0000      -0.543434       -14.7876
 204   2.0000      -0.540066       -14.6959
 205   2.0000      -0.538362       -14.6496
 206   2.0000      -0.533825       -14.5261
 207   2.0000      -0.531684       -14.4678
 208   2.0000      -0.529165       -14.3993
 209   2.0000      -0.528626       -14.3847
 210   2.0000      -0.525549       -14.3009
 211   2.0000      -0.524836       -14.2815
 212   2.0000      -0.523902       -14.2561
 213   2.0000      -0.522641       -14.2218
 214   2.0000      -0.520571       -14.1655
 215   2.0000      -0.519117       -14.1259
 216   2.0000      -0.518198       -14.1009
 217   2.0000      -0.516543       -14.0559
 218   2.0000      -0.515620       -14.0307
 219   2.0000      -0.512949       -13.9581
 220   2.0000      -0.509072       -13.8526
 221   2.0000      -0.507960       -13.8223
 222   2.0000      -0.503396       -13.6981
 223   2.0000      -0.501178       -13.6378
 224   2.0000      -0.498897       -13.5757
 225   2.0000      -0.494272       -13.4498
 226   2.0000      -0.490844       -13.3565
 227   2.0000      -0.488380       -13.2895
 228   2.0000      -0.487852       -13.2751
 229   2.0000      -0.486482       -13.2378
 230   2.0000      -0.484408       -13.1814
 231   2.0000      -0.482461       -13.1284
 232   2.0000      -0.480718       -13.0810
 233   2.0000      -0.480079       -13.0636
 234   2.0000      -0.479254       -13.0412
 235   2.0000      -0.478184       -13.0121
 236   2.0000      -0.476282       -12.9603
 237   2.0000      -0.474298       -12.9063
 238   2.0000      -0.473316       -12.8796
 239   2.0000      -0.473241       -12.8775
 240   2.0000      -0.469820       -12.7844
 241   2.0000      -0.467002       -12.7078
 242   2.0000      -0.465263       -12.6605
 243   2.0000      -0.463749       -12.6192
 244   2.0000      -0.459741       -12.5102
 245   2.0000      -0.459131       -12.4936
 246   2.0000      -0.457924       -12.4608
 247   2.0000      -0.456116       -12.4116
 248   2.0000      -0.454941       -12.3796
 249   2.0000      -0.451185       -12.2774
 250   2.0000      -0.450827       -12.2676
 251   2.0000      -0.448871       -12.2144
 252   2.0000      -0.447308       -12.1719
 253   2.0000      -0.443601       -12.0710
 254   2.0000      -0.439009       -11.9460
 255   2.0000      -0.437318       -11.9000
 256   2.0000      -0.436807       -11.8861
 257   2.0000      -0.435823       -11.8593
 258   2.0000      -0.433168       -11.7871
 259   2.0000      -0.432657       -11.7732
 260   2.0000      -0.428055       -11.6480
 261   2.0000      -0.425925       -11.5900
 262   2.0000      -0.423302       -11.5186
 263   2.0000      -0.416557       -11.3351
 264   2.0000      -0.415032       -11.2936
 265   2.0000      -0.388143       -10.5619
 266   2.0000      -0.377321       -10.2674
 267   2.0000      -0.371137       -10.0992
 268   2.0000      -0.370448       -10.0804
 269   2.0000      -0.368258       -10.0208
 270   2.0000      -0.367487        -9.9998
 271   2.0000      -0.365753        -9.9526
 272   2.0000      -0.364261        -9.9121
 273   2.0000      -0.362224        -9.8566
 274   2.0000      -0.360513        -9.8101
 275   2.0000      -0.356504        -9.7010
 276   2.0000      -0.348549        -9.4845
 277   2.0000      -0.343708        -9.3528
 278   2.0000      -0.326808        -8.8929
 279   2.0000      -0.289623        -7.8810
 280   2.0000      -0.265506        -7.2248
 281   0.0000      -0.079780        -2.1709
 282   0.0000      -0.065823        -1.7911
 283   0.0000      -0.043700        -1.1892
 284   0.0000      -0.034005        -0.9253
 285   0.0000      -0.023787        -0.6473

MULLIKEN ATOMIC CHARGES
-----------------------
   0 C :    0.234947
   1 O :   -0.206743
   2 C :   -0.070010
   3 C :   -0.010567
   4 C :   -0.065050
   5 C :    0.309325
   6 C :   -0.088025
   7 C :    0.019102
   8 C :    0.287704
   9 C :   -0.378414
  10 C :   -0.126284
  11 N :    0.091179
  12 C :   -0.133674
  13 N :    0.108105
  14 C :   -0.149004
  15 F :   -0.197182
  16 C :   -0.003866
  17 C :    0.226399
  18 O :   -0.195959
  19 C :   -0.067361
  20 C :   -0.012605
  21 C :   -0.068436
  22 C :    0.312874
  23 C :   -0.089668
  24 C :    0.021172
  25 C :    0.280520
  26 C :   -0.385003
  27 C :   -0.127230
  28 N :    0.105728
  29 C :   -0.131741
  30 N :    0.107335
  31 C :   -0.144222
  32 F :   -0.197158
  33 C :    0.069899
  34 C :   -0.161018
  35 S :    0.182554
  36 C :   -0.056957
  37 C :   -0.018438
  38 C :   -0.000709
  39 C :   -0.078256
  40 C :    0.023352
  41 C :   -0.186052
  42 S :    0.190658
  43 C :   -0.127649
  44 C :   -0.050235
  45 C :    0.042762
  46 C :    0.154632
  47 C :    0.153073
  48 C :    0.047065
  49 C :   -0.014395
  50 C :   -0.011243
  51 N :   -0.096160
  52 N :   -0.075462
  53 N :   -0.097028
  54 C :   -0.131922
  55 S :    0.192571
  56 C :   -0.082096
  57 C :    0.023590
  58 C :   -0.059235
  59 C :   -0.044092
  60 C :    0.021362
  61 C :   -0.183955
  62 S :    0.222069
  63 C :   -0.089833
  64 C :   -0.055569
  65 F :   -0.185860
  66 C :    0.039013
  67 C :   -0.019676
  68 C :    0.017162
  69 C :   -0.019975
  70 C :    0.031879
  71 C :   -0.018273
  72 C :    0.013027
  73 C :   -0.021240
  74 C :    0.103552
  75 C :   -0.062444
  76 F :   -0.186816
  77 H :    0.031652
  78 H :    0.038913
  79 H :    0.039356
  80 H :    0.028463
  81 H :    0.028761
  82 H :    0.038441
  83 H :    0.040698
  84 H :    0.022395
  85 H :    0.043044
  86 H :    0.013793
  87 H :    0.016874
  88 H :    0.027896
  89 H :    0.033283
  90 H :    0.025808
  91 H :    0.032717
  92 H :    0.041693
  93 H :    0.027972
  94 H :    0.031008
  95 H :    0.027586
  96 H :    0.039488
  97 H :    0.035428
  98 H :    0.040967
  99 H :    0.031649
 100 H :    0.023449
 101 H :    0.042534
 102 H :    0.038001
 103 H :    0.029713
 104 H :    0.041790
 105 H :    0.025213
 106 H :    0.042792
 107 H :    0.035595
 108 H :    0.039544
 109 H :    0.063923
 110 H :    0.065593
 111 H :    0.053935
 112 H :    0.055655
 113 H :    0.054558
Sum of atomic charges:   -0.0000000

LOEWDIN ATOMIC CHARGES
----------------------
   0 C :    0.091409
   1 O :   -0.172840
   2 C :   -0.061324
   3 C :    0.024476
   4 C :   -0.036589
   5 C :    0.108559
   6 C :   -0.028524
   7 C :   -0.006463
   8 C :    0.081425
   9 C :   -0.151212
  10 C :   -0.014050
  11 N :   -0.061142
  12 C :   -0.014518
  13 N :   -0.056644
  14 C :   -0.133730
  15 F :   -0.062448
  16 C :    0.062898
  17 C :    0.096550
  18 O :   -0.157903
  19 C :   -0.061992
  20 C :    0.023451
  21 C :   -0.037328
  22 C :    0.108844
  23 C :   -0.029081
  24 C :   -0.006909
  25 C :    0.080106
  26 C :   -0.149255
  27 C :   -0.019106
  28 N :   -0.053926
  29 C :   -0.013832
  30 N :   -0.056189
  31 C :   -0.123762
  32 F :   -0.062531
  33 C :    0.054967
  34 C :   -0.188632
  35 S :    0.460280
  36 C :   -0.159159
  37 C :   -0.047941
  38 C :   -0.001551
  39 C :   -0.209897
  40 C :   -0.021709
  41 C :   -0.038012
  42 S :    0.459915
  43 C :   -0.158821
  44 C :   -0.046162
  45 C :   -0.069823
  46 C :    0.064899
  47 C :    0.063524
  48 C :   -0.067775
  49 C :   -0.041100
  50 C :   -0.041431
  51 N :   -0.085929
  52 N :    0.159648
  53 N :   -0.085335
  54 C :   -0.162689
  55 S :    0.462070
  56 C :   -0.204743
  57 C :   -0.026278
  58 C :   -0.048842
  59 C :   -0.168756
  60 C :   -0.048356
  61 C :   -0.038703
  62 S :    0.508908
  63 C :   -0.193468
  64 C :   -0.008526
  65 F :   -0.052147
  66 C :   -0.011766
  67 C :   -0.061799
  68 C :   -0.017438
  69 C :   -0.058100
  70 C :   -0.012483
  71 C :   -0.060367
  72 C :   -0.016621
  73 C :   -0.058277
  74 C :    0.035717
  75 C :   -0.058077
  76 F :   -0.052150
  77 H :    0.045930
  78 H :    0.046315
  79 H :    0.050518
  80 H :    0.051574
  81 H :    0.044570
  82 H :    0.046032
  83 H :    0.050655
  84 H :    0.043745
  85 H :    0.035326
  86 H :    0.030725
  87 H :    0.028895
  88 H :    0.041196
  89 H :    0.030673
  90 H :    0.024401
  91 H :    0.025919
  92 H :    0.032335
  93 H :    0.022823
  94 H :    0.023738
  95 H :    0.025419
  96 H :    0.027455
  97 H :    0.028258
  98 H :    0.027268
  99 H :    0.029887
 100 H :    0.023143
 101 H :    0.029920
 102 H :    0.031481
 103 H :    0.024012
 104 H :    0.027454
 105 H :    0.024256
 106 H :    0.028400
 107 H :    0.028563
 108 H :    0.026473
 109 H :    0.041048
 110 H :    0.041189
 111 H :    0.034587
 112 H :    0.037777
 113 H :    0.034556

  Mayer bond orders larger than 0.100000
B(  0-C ,  1-O ) :   2.1170 B(  0-C ,  2-C ) :   0.9701 B(  0-C , 14-C ) :   0.9833
B(  2-C ,  3-C ) :   1.3971 B(  2-C ,  7-C ) :   1.3374 B(  3-C ,  4-C ) :   1.3370
B(  3-C , 77-H ) :   1.0035 B(  4-C ,  5-C ) :   1.3762 B(  4-C , 78-H ) :   0.9908
B(  5-C ,  6-C ) :   1.3353 B(  5-C , 15-F ) :   1.0739 B(  6-C ,  7-C ) :   1.3574
B(  6-C , 79-H ) :   0.9874 B(  7-C ,  8-C ) :   1.0030 B(  8-C ,  9-C ) :   1.6251
B(  8-C , 14-C ) :   1.1140 B(  9-C , 10-C ) :   1.1355 B(  9-C , 12-C ) :   1.1323
B( 10-C , 11-N ) :   2.9514 B( 12-C , 13-N ) :   2.9747 B( 14-C , 16-C ) :   1.4906
B( 16-C , 63-C ) :   1.3206 B( 16-C , 80-H ) :   0.9399 B( 17-C , 18-O ) :   2.1314
B( 17-C , 19-C ) :   0.9701 B( 17-C , 31-C ) :   0.9556 B( 19-C , 20-C ) :   1.3970
B( 19-C , 24-C ) :   1.3354 B( 20-C , 21-C ) :   1.3382 B( 20-C , 81-H ) :   1.0035
B( 21-C , 22-C ) :   1.3706 B( 21-C , 82-H ) :   0.9921 B( 22-C , 23-C ) :   1.3400
B( 22-C , 32-F ) :   1.0742 B( 23-C , 24-C ) :   1.3513 B( 23-C , 83-H ) :   0.9874
B( 24-C , 25-C ) :   1.0022 B( 25-C , 26-C ) :   1.6301 B( 25-C , 31-C ) :   1.1099
B( 26-C , 27-C ) :   1.1288 B( 26-C , 29-C ) :   1.1326 B( 27-C , 28-N ) :   2.9621
B( 29-C , 30-N ) :   2.9733 B( 31-C , 33-C ) :   1.5712 B( 33-C , 34-C ) :   1.2796
B( 33-C , 84-H ) :   0.9093 B( 34-C , 35-S ) :   1.0758 B( 34-C , 38-C ) :   1.3667
B( 35-S , 36-C ) :   1.1486 B( 36-C , 37-C ) :   1.4498 B( 36-C , 39-C ) :   1.2227
B( 37-C , 38-C ) :   1.3817 B( 37-C , 41-C ) :   0.9172 B( 38-C , 85-H ) :   0.9743
B( 39-C , 40-C ) :   1.5048 B( 39-C , 42-S ) :   1.0668 B( 40-C , 41-C ) :   0.9390
B( 40-C , 44-C ) :   1.3133 B( 41-C , 70-C ) :   1.0155 B( 41-C , 72-C ) :   1.0272
B( 42-S , 43-C ) :   1.1196 B( 43-C , 44-C ) :   1.4745 B( 43-C , 45-C ) :   1.1476
B( 44-C , 86-H ) :   0.9923 B( 45-C , 46-C ) :   1.3899 B( 45-C , 48-C ) :   0.1122
B( 45-C , 50-C ) :   1.1880 B( 46-C , 47-C ) :   1.2124 B( 46-C , 76-F ) :   1.1099
B( 47-C , 48-C ) :   1.3885 B( 47-C , 65-F ) :   1.1134 B( 48-C , 49-C ) :   1.1861
B( 48-C , 54-C ) :   1.1504 B( 49-C , 50-C ) :   1.2276 B( 49-C , 51-N ) :   1.4651
B( 50-C , 53-N ) :   1.4649 B( 51-N , 52-N ) :   1.2340 B( 51-N , 53-N ) :   0.1596
B( 52-N , 53-N ) :   1.2374 B( 52-N , 74-C ) :   0.9077 B( 54-C , 55-S ) :   1.1190
B( 54-C , 58-C ) :   1.4756 B( 55-S , 56-C ) :   1.0737 B( 56-C , 57-C ) :   1.5037
B( 56-C , 59-C ) :   1.2280 B( 57-C , 58-C ) :   1.3168 B( 57-C , 61-C ) :   0.9237
B( 58-C , 87-H ) :   0.9842 B( 59-C , 60-C ) :   1.4253 B( 59-C , 62-S ) :   1.1066
B( 60-C , 61-C ) :   0.9224 B( 60-C , 64-C ) :   1.4084 B( 61-C , 66-C ) :   1.0183
B( 61-C , 68-C ) :   1.0316 B( 62-S , 63-C ) :   1.0686 B( 63-C , 64-C ) :   1.3079
B( 64-C , 88-H ) :   1.0166 B( 66-C , 67-C ) :   1.0982 B( 66-C , 89-H ) :   0.9470
B( 66-C , 90-H ) :   0.9454 B( 67-C , 91-H ) :   0.9668 B( 67-C , 92-H ) :   0.9673
B( 67-C , 93-H ) :   0.9668 B( 68-C , 69-C ) :   1.0876 B( 68-C , 94-H ) :   0.9467
B( 68-C , 95-H ) :   0.9488 B( 69-C , 96-H ) :   0.9695 B( 69-C , 97-H ) :   0.9705
B( 69-C , 98-H ) :   0.9674 B( 70-C , 71-C ) :   1.0980 B( 70-C , 99-H ) :   0.9477
B( 70-C ,100-H ) :   0.9450 B( 71-C ,101-H ) :   0.9672 B( 71-C ,102-H ) :   0.9669
B( 71-C ,103-H ) :   0.9663 B( 72-C , 73-C ) :   1.0879 B( 72-C ,104-H ) :   0.9469
B( 72-C ,105-H ) :   0.9493 B( 73-C ,106-H ) :   0.9697 B( 73-C ,107-H ) :   0.9704
B( 73-C ,108-H ) :   0.9668 B( 74-C , 75-C ) :   1.0989 B( 74-C ,109-H ) :   0.9492
B( 74-C ,110-H ) :   0.9499 B( 75-C ,111-H ) :   0.9694 B( 75-C ,112-H ) :   0.9729
B( 75-C ,113-H ) :   0.9704

-----------------------------------------------------------------------------
         ABSORPTION SPECTRUM VIA TRANSITION ELECTRIC DIPOLE MOMENTS
-----------------------------------------------------------------------------
State   Energy  Wavelength   fosc         T2         TX        TY        TZ
        (cm-1)    (nm)                  (au**2)     (au)      (au)      (au)
-----------------------------------------------------------------------------
   0   17479.8    572.1   4.025197700  75.80992   5.19138   0.15464  -6.98825
   1   23307.8    429.0   0.276771116   3.90926   0.88974   1.63726   0.66107
   2   28346.5    352.8   0.049524894   0.57518   0.22361   0.70249   0.17798
   3   29478.6    339.2   0.011411968   0.12745   0.06501   0.26760   0.22718
   4   31015.2    322.4   0.071325941   0.75709  -0.58128   0.15070   0.62968
   5   31805.3    314.4   0.017390530   0.18001   0.04030   0.34531   0.24320
   6   34378.9    290.9   0.133525107   1.27863   0.73313   0.86059  -0.02351
   7   35965.0    278.0   0.142445887   1.30390  -0.66441   0.08687   0.92462
   8   36773.6    271.9   0.429224987   3.84259  -1.06653  -1.62038  -0.28194
   9   38525.5    259.6   0.081262148   0.69441   0.47335   0.68326   0.05926
  10   38775.3    257.9   0.225305544   1.91290   0.57072   1.18392   0.43070
  11   39037.5    256.2   0.387409045   3.26711  -0.80350  -1.53386  -0.51843
  12   40082.5    249.5   0.046151826   0.37906  -0.20347  -0.14793   0.56194

Dispersion correction           -0.069193838
FINAL SINGLE POINT ENERGY     -4830.617887216076

DIPOLE MOMENT
-------------
                                X             Y             Z
Electronic contribution:     29.77277      84.59773      18.50046
Nuclear contribution   :    -31.99027     -88.64479     -19.05974
                        -----------------------------------------
Total Dipole Moment    :     -2.21750      -4.04706      -0.55928
                        -----------------------------------------
Magnitude (a.u.)       :      4.64853
Magnitude (Debye)      :     11.81562

Rotational constants in cm-1:     0.002164     0.000171     0.000160
Rotational constants in MHz :    64.864513     5.115648     4.786227

                             ****ORCA TERMINATED NORMALLY****
TOTAL RUN TIME: 0 days 0 hours 13 minutes 16 seconds 333 msec
