                         Program Version 4.2.0 -  RELEASE  -
|  1> # ORCA input file
|  2> # SCF done       -188.630125405034          0.002676796561
|  3> ! wb97x-d3 def2-SVP def2/J RIJCOSX Grid4 TightSCF
|  4> %maxcore 5000
|  5> %tddft
|  6>     Mode sTDDFT
|  7>     Ethresh 5.0
|  8>     maxcore 5000
|  9> end
| 10>
| 11> %pal
| 12>   nprocs 6
| 13>   end
| 14> * xyz 0 1
| 15>    C       -1.10284        -0.72743         2.25967
| 16>    O       -1.07711         0.48959         2.19004
| 17>    C       -2.26921        -1.58719         1.97173
| 18>    C       -3.53251        -1.21595         1.56412
| 19>    C       -4.47235        -2.21581         1.34857
| 20>   Br       -6.21265        -1.74168         0.78153
| 21>    C       -4.13304        -3.55498         1.54465
| 22>   Br       -5.41761        -4.91099         1.24536
| 23>    C       -2.85760        -3.92508         1.95786
| 24>    C       -1.91615        -2.93301         2.17345
| 25>    C       -0.51629        -2.99357         2.59718
| 26>    C        0.16580        -4.14857         2.88989
| 27>    C        1.51431        -4.23058         3.29374
| 28>    N        2.60514        -4.38227         3.62095
| 29>    C       -0.40297        -5.43846         2.82768
| 30>    N       -0.80750        -6.51205         2.80039
| 31>    C       -0.02126        -1.63363         2.64038
| 32>    C        1.26189        -1.26751         2.98287
| 33>    C        1.86901        -0.01448         3.05660
| 34>    S        1.06848         1.52495         2.72521
| 35>    C        2.53232         2.37191         3.05316
| 36>    C        3.57991         1.49707         3.39921
| 37>    C        3.22198         0.15794         3.41037
| 38>    C        4.19478        -0.93712         3.70236
| 39>    C        4.78119        -1.50229         2.40441
| 40>    S        5.09449         2.31154         3.74328
| 41>    C        4.31425         3.81970         3.42292
| 42>    C        2.96514         3.70036         3.06520
| 43>    N        2.43410         4.93965         2.82512
| 44>    C        0.99582         5.08838         2.76942
| 45>    C        3.43018         5.87844         3.03289
| 46>    C        4.61525         5.18554         3.42842
| 47>    C        5.79679         5.85931         3.80841
| 48>    N        6.94500         5.34732         4.22205
| 49>    S        7.94578         6.56491         4.58914
| 50>    N        6.95283         7.79192         4.23190
| 51>    C        5.80226         7.28992         3.81203
| 52>    C        4.65782         7.97368         3.34666
| 53>    C        3.48479         7.29322         2.90263
| 54>    N        2.59581         8.24126         2.42095
| 55>    C        1.43929         8.09585         1.56485
| 56>    C        1.80483         7.43660         0.23706
| 57>    C        3.17784         9.47297         2.55863
| 58>    C        4.44252         9.34153         3.14318
| 59>    S        5.27608        10.83761         3.35051
| 60>    C        3.91225        11.67705         2.64078
| 61>    C        2.87386        10.80582         2.26963
| 62>    S        1.55687        11.66200         1.56735
| 63>    C        2.37706        13.20103         1.84883
| 64>    C        3.65002        13.03119         2.39720
| 65>    C        4.63693        14.13391         2.56952
| 66>    C        6.05315        13.75667         2.14310
| 67>    C        1.69957        14.34990         1.40906
| 68>    C        1.78469        15.62117         1.92322
| 69>    C        1.25079        16.81538         1.30542
| 70>    C        0.84395        16.94742         0.00297
| 71>    C        0.34981        18.14674        -0.55206
| 72>    N       -0.06574        19.09288        -1.05230
| 73>    C        0.89518        15.91907        -0.96237
| 74>    N        0.93369        15.14088        -1.80601
| 75>    C        1.31703        17.89093         2.29257
| 76>    C        0.93531        19.22024         2.22835
| 77>    C        1.13619        20.02417         3.34538
| 78>   Br        0.61891        21.84214         3.25764
| 79>    C        1.70497        19.51332         4.51315
| 80>   Br        1.97078        20.62939         6.01557
| 81>    C        2.08478        18.17864         4.58343
| 82>    C        1.89071        17.38575         3.47219
| 83>    C        2.20297        15.94777         3.29985
| 84>    O        2.61680        15.19511         4.15682
| 85>    C        0.45391         5.73331         4.04271
| 86>    H       -3.78088        -0.17625         1.41445
| 87>    H       -2.63441        -4.96979         2.09656
| 88>    H        1.92897        -2.08031         3.23495
| 89>    H        5.00388        -0.52204         4.30655
| 90>    H        3.72443        -1.74280         4.26828
| 91>    H        5.29598        -0.72086         1.84996
| 92>    H        5.48947        -2.29283         2.63604
| 93>    H        3.99731        -1.91678         1.77442
| 94>    H        0.69957         5.64032         1.87798
| 95>    H        0.58359         4.08110         2.67376
| 96>    H        0.64599         7.55551         2.08079
| 97>    H        1.06638         9.10498         1.37292
| 98>    H        2.25692         6.45949         0.39123
| 99>    H        0.91509         7.32082        -0.37569
|100>    H        2.51619         8.05765        -0.30200
|101>    H        4.30072        14.99742         1.98937
|102>    H        4.63548        14.43403         3.62316
|103>    H        6.05432        13.35074         1.13330
|104>    H        6.68169        14.64357         2.15809
|105>    H        6.48820        13.02198         2.81495
|106>    H        0.99614        14.18266         0.60095
|107>    H        0.48685        19.64711         1.34587
|108>    H        2.52378        17.77281         5.48201
|109>    H        0.68403         5.10688         4.90169
|110>    H        0.89559         6.71311         4.21060
|111>    H       -0.62537         5.83925         3.97331
|112> *
|113>
|114>                          ****END OF INPUT****

CARTESIAN COORDINATES (ANGSTROEM)
---------------------------------
  C     -1.102840   -0.727430    2.259670
  O     -1.077110    0.489590    2.190040
  C     -2.269210   -1.587190    1.971730
  C     -3.532510   -1.215950    1.564120
  C     -4.472350   -2.215810    1.348570
  Br    -6.212650   -1.741680    0.781530
  C     -4.133040   -3.554980    1.544650
  Br    -5.417610   -4.910990    1.245360
  C     -2.857600   -3.925080    1.957860
  C     -1.916150   -2.933010    2.173450
  C     -0.516290   -2.993570    2.597180
  C      0.165800   -4.148570    2.889890
  C      1.514310   -4.230580    3.293740
  N      2.605140   -4.382270    3.620950
  C     -0.402970   -5.438460    2.827680
  N     -0.807500   -6.512050    2.800390
  C     -0.021260   -1.633630    2.640380
  C      1.261890   -1.267510    2.982870
  C      1.869010   -0.014480    3.056600
  S      1.068480    1.524950    2.725210
  C      2.532320    2.371910    3.053160
  C      3.579910    1.497070    3.399210
  C      3.221980    0.157940    3.410370
  C      4.194780   -0.937120    3.702360
  C      4.781190   -1.502290    2.404410
  S      5.094490    2.311540    3.743280
  C      4.314250    3.819700    3.422920
  C      2.965140    3.700360    3.065200
  N      2.434100    4.939650    2.825120
  C      0.995820    5.088380    2.769420
  C      3.430180    5.878440    3.032890
  C      4.615250    5.185540    3.428420
  C      5.796790    5.859310    3.808410
  N      6.945000    5.347320    4.222050
  S      7.945780    6.564910    4.589140
  N      6.952830    7.791920    4.231900
  C      5.802260    7.289920    3.812030
  C      4.657820    7.973680    3.346660
  C      3.484790    7.293220    2.902630
  N      2.595810    8.241260    2.420950
  C      1.439290    8.095850    1.564850
  C      1.804830    7.436600    0.237060
  C      3.177840    9.472970    2.558630
  C      4.442520    9.341530    3.143180
  S      5.276080   10.837610    3.350510
  C      3.912250   11.677050    2.640780
  C      2.873860   10.805820    2.269630
  S      1.556870   11.662000    1.567350
  C      2.377060   13.201030    1.848830
  C      3.650020   13.031190    2.397200
  C      4.636930   14.133910    2.569520
  C      6.053150   13.756670    2.143100
  C      1.699570   14.349900    1.409060
  C      1.784690   15.621170    1.923220
  C      1.250790   16.815380    1.305420
  C      0.843950   16.947420    0.002970
  C      0.349810   18.146740   -0.552060
  N     -0.065740   19.092880   -1.052300
  C      0.895180   15.919070   -0.962370
  N      0.933690   15.140880   -1.806010
  C      1.317030   17.890930    2.292570
  C      0.935310   19.220240    2.228350
  C      1.136190   20.024170    3.345380
  Br     0.618910   21.842140    3.257640
  C      1.704970   19.513320    4.513150
  Br     1.970780   20.629390    6.015570
  C      2.084780   18.178640    4.583430
  C      1.890710   17.385750    3.472190
  C      2.202970   15.947770    3.299850
  O      2.616800   15.195110    4.156820
  C      0.453910    5.733310    4.042710
  H     -3.780880   -0.176250    1.414450
  H     -2.634410   -4.969790    2.096560
  H      1.928970   -2.080310    3.234950
  H      5.003880   -0.522040    4.306550
  H      3.724430   -1.742800    4.268280
  H      5.295980   -0.720860    1.849960
  H      5.489470   -2.292830    2.636040
  H      3.997310   -1.916780    1.774420
  H      0.699570    5.640320    1.877980
  H      0.583590    4.081100    2.673760
  H      0.645990    7.555510    2.080790
  H      1.066380    9.104980    1.372920
  H      2.256920    6.459490    0.391230
  H      0.915090    7.320820   -0.375690
  H      2.516190    8.057650   -0.302000
  H      4.300720   14.997420    1.989370
  H      4.635480   14.434030    3.623160
  H      6.054320   13.350740    1.133300
  H      6.681690   14.643570    2.158090
  H      6.488200   13.021980    2.814950
  H      0.996140   14.182660    0.600950
  H      0.486850   19.647110    1.345870
  H      2.523780   17.772810    5.482010
  H      0.684030    5.106880    4.901690
  H      0.895590    6.713110    4.210600
  H     -0.625370    5.839250    3.973310

 Total Charge           Charge          ....    0
 Multiplicity           Mult            ....    1
 Number of Electrons    NEL             ....  630
 Basis Dimension        Dim             .... 1216

ORBITAL ENERGIES
----------------

  NO   OCC          E(Eh)            E(eV)
   0   2.0000    -482.884246    -13139.9484
   1   2.0000    -482.883736    -13139.9345
   2   2.0000    -482.881603    -13139.8764
   3   2.0000    -482.881530    -13139.8744
   4   2.0000     -89.035402     -2422.7764
   5   2.0000     -89.002018     -2421.8680
   6   2.0000     -88.996562     -2421.7196
   7   2.0000     -88.994520     -2421.6640
   8   2.0000     -88.993079     -2421.6248
   9   2.0000     -62.602122     -1703.4904
  10   2.0000     -62.601616     -1703.4766
  11   2.0000     -62.599513     -1703.4194
  12   2.0000     -62.599449     -1703.4176
  13   2.0000     -56.420953     -1535.2922
  14   2.0000     -56.420451     -1535.2785
  15   2.0000     -56.418365     -1535.2218
  16   2.0000     -56.418297     -1535.2199
  17   2.0000     -56.418247     -1535.2186
  18   2.0000     -56.418169     -1535.2164
  19   2.0000     -56.417739     -1535.2047
  20   2.0000     -56.417664     -1535.2027
  21   2.0000     -56.415624     -1535.1472
  22   2.0000     -56.415559     -1535.1454
  23   2.0000     -56.415551     -1535.1452
  24   2.0000     -56.415487     -1535.1434
  25   2.0000     -19.263646      -524.1905
  26   2.0000     -19.258517      -524.0509
  27   2.0000     -14.531169      -395.4132
  28   2.0000     -14.530166      -395.3859
  29   2.0000     -14.473913      -393.8552
  30   2.0000     -14.473827      -393.8528
  31   2.0000     -14.458646      -393.4398
  32   2.0000     -14.454893      -393.3376
  33   2.0000     -14.453616      -393.3029
  34   2.0000     -14.451231      -393.2380
  35   2.0000     -10.410754      -283.2910
  36   2.0000     -10.408234      -283.2225
  37   2.0000     -10.390443      -282.7383
  38   2.0000     -10.390427      -282.7379
  39   2.0000     -10.389887      -282.7232
  40   2.0000     -10.389769      -282.7200
  41   2.0000     -10.384479      -282.5760
  42   2.0000     -10.383787      -282.5572
  43   2.0000     -10.382967      -282.5349
  44   2.0000     -10.382497      -282.5221
  45   2.0000     -10.382396      -282.5194
  46   2.0000     -10.380163      -282.4586
  47   2.0000     -10.376375      -282.3555
  48   2.0000     -10.373643      -282.2812
  49   2.0000     -10.367538      -282.1151
  50   2.0000     -10.365077      -282.0481
  51   2.0000     -10.363723      -282.0112
  52   2.0000     -10.363371      -282.0017
  53   2.0000     -10.361428      -281.9488
  54   2.0000     -10.360025      -281.9106
  55   2.0000     -10.359156      -281.8870
  56   2.0000     -10.357837      -281.8511
  57   2.0000     -10.357513      -281.8422
  58   2.0000     -10.355834      -281.7966
  59   2.0000     -10.355526      -281.7882
  60   2.0000     -10.354436      -281.7585
  61   2.0000     -10.354299      -281.7548
  62   2.0000     -10.352852      -281.7154
  63   2.0000     -10.352814      -281.7144
  64   2.0000     -10.352689      -281.7110
  65   2.0000     -10.351474      -281.6779
  66   2.0000     -10.350858      -281.6612
  67   2.0000     -10.350152      -281.6420
  68   2.0000     -10.347822      -281.5786
  69   2.0000     -10.347022      -281.5568
  70   2.0000     -10.346906      -281.5536
  71   2.0000     -10.346637      -281.5463
  72   2.0000     -10.346400      -281.5399
  73   2.0000     -10.346302      -281.5372
  74   2.0000     -10.346083      -281.5312
  75   2.0000     -10.338600      -281.3276
  76   2.0000     -10.338259      -281.3183
  77   2.0000     -10.336821      -281.2792
  78   2.0000     -10.332805      -281.1699
  79   2.0000     -10.332592      -281.1641
  80   2.0000     -10.332518      -281.1621
  81   2.0000     -10.321841      -280.8716
  82   2.0000     -10.320754      -280.8420
  83   2.0000     -10.320520      -280.8356
  84   2.0000     -10.313407      -280.6421
  85   2.0000     -10.298984      -280.2496
  86   2.0000     -10.297242      -280.2022
  87   2.0000      -8.829080      -240.2515
  88   2.0000      -8.828563      -240.2374
  89   2.0000      -8.826473      -240.1805
  90   2.0000      -8.826416      -240.1790
  91   2.0000      -8.146590      -221.6800
  92   2.0000      -8.115359      -220.8302
  93   2.0000      -8.107578      -220.6184
  94   2.0000      -8.107036      -220.6037
  95   2.0000      -8.105814      -220.5704
  96   2.0000      -6.660298      -181.2359
  97   2.0000      -6.659818      -181.2229
  98   2.0000      -6.657798      -181.1679
  99   2.0000      -6.657717      -181.1657
 100   2.0000      -6.646127      -180.8503
 101   2.0000      -6.645607      -180.8362
 102   2.0000      -6.645411      -180.8308
 103   2.0000      -6.644862      -180.8159
 104   2.0000      -6.643467      -180.7779
 105   2.0000      -6.643414      -180.7765
 106   2.0000      -6.642748      -180.7584
 107   2.0000      -6.642719      -180.7576
 108   2.0000      -6.108377      -166.2174
 109   2.0000      -6.100488      -166.0027
 110   2.0000      -6.098290      -165.9429
 111   2.0000      -6.075257      -165.3162
 112   2.0000      -6.071114      -165.2034
 113   2.0000      -6.067712      -165.1108
 114   2.0000      -6.067156      -165.0957
 115   2.0000      -6.066902      -165.0888
 116   2.0000      -6.065922      -165.0621
 117   2.0000      -6.063022      -164.9832
 118   2.0000      -6.062995      -164.9825
 119   2.0000      -6.061898      -164.9526
 120   2.0000      -6.059212      -164.8796
 121   2.0000      -6.058119      -164.8498
 122   2.0000      -6.056847      -164.8152
 123   2.0000      -2.772122       -75.4333
 124   2.0000      -2.771594       -75.4189
 125   2.0000      -2.769540       -75.3630
 126   2.0000      -2.769515       -75.3623
 127   2.0000      -2.768300       -75.3293
 128   2.0000      -2.767797       -75.3156
 129   2.0000      -2.767753       -75.3144
 130   2.0000      -2.767290       -75.3018
 131   2.0000      -2.765732       -75.2594
 132   2.0000      -2.765679       -75.2580
 133   2.0000      -2.765243       -75.2461
 134   2.0000      -2.765120       -75.2427
 135   2.0000      -2.756418       -75.0060
 136   2.0000      -2.756408       -75.0057
 137   2.0000      -2.755894       -74.9917
 138   2.0000      -2.755876       -74.9912
 139   2.0000      -2.753752       -74.9334
 140   2.0000      -2.753741       -74.9331
 141   2.0000      -2.753707       -74.9322
 142   2.0000      -2.753700       -74.9320
 143   2.0000      -1.181178       -32.1415
 144   2.0000      -1.175865       -31.9969
 145   2.0000      -1.162803       -31.6415
 146   2.0000      -1.154906       -31.4266
 147   2.0000      -1.148617       -31.2555
 148   2.0000      -1.065406       -28.9912
 149   2.0000      -1.065223       -28.9862
 150   2.0000      -1.058716       -28.8091
 151   2.0000      -1.055372       -28.7181
 152   2.0000      -1.049743       -28.5650
 153   2.0000      -1.048129       -28.5210
 154   2.0000      -1.035665       -28.1819
 155   2.0000      -1.035184       -28.1688
 156   2.0000      -1.018528       -27.7155
 157   2.0000      -1.017817       -27.6962
 158   2.0000      -1.015981       -27.6462
 159   2.0000      -1.010310       -27.4919
 160   2.0000      -0.998378       -27.1673
 161   2.0000      -0.990665       -26.9574
 162   2.0000      -0.960893       -26.1472
 163   2.0000      -0.959175       -26.1005
 164   2.0000      -0.956208       -26.0197
 165   2.0000      -0.950215       -25.8567
 166   2.0000      -0.948829       -25.8190
 167   2.0000      -0.941672       -25.6242
 168   2.0000      -0.941390       -25.6165
 169   2.0000      -0.939619       -25.5683
 170   2.0000      -0.934123       -25.4188
 171   2.0000      -0.931595       -25.3500
 172   2.0000      -0.905963       -24.6525
 173   2.0000      -0.904642       -24.6166
 174   2.0000      -0.900942       -24.5159
 175   2.0000      -0.890957       -24.2442
 176   2.0000      -0.890438       -24.2300
 177   2.0000      -0.887846       -24.1595
 178   2.0000      -0.872271       -23.7357
 179   2.0000      -0.869372       -23.6568
 180   2.0000      -0.858398       -23.3582
 181   2.0000      -0.847040       -23.0491
 182   2.0000      -0.841986       -22.9116
 183   2.0000      -0.838650       -22.8208
 184   2.0000      -0.822172       -22.3725
 185   2.0000      -0.808209       -21.9925
 186   2.0000      -0.805787       -21.9266
 187   2.0000      -0.803066       -21.8525
 188   2.0000      -0.796625       -21.6773
 189   2.0000      -0.795754       -21.6536
 190   2.0000      -0.774466       -21.0743
 191   2.0000      -0.762632       -20.7523
 192   2.0000      -0.759013       -20.6538
 193   2.0000      -0.757532       -20.6135
 194   2.0000      -0.747891       -20.3511
 195   2.0000      -0.736736       -20.0476
 196   2.0000      -0.735387       -20.0109
 197   2.0000      -0.734276       -19.9807
 198   2.0000      -0.733226       -19.9521
 199   2.0000      -0.725438       -19.7402
 200   2.0000      -0.710098       -19.3228
 201   2.0000      -0.706715       -19.2307
 202   2.0000      -0.703645       -19.1472
 203   2.0000      -0.693050       -18.8588
 204   2.0000      -0.685271       -18.6472
 205   2.0000      -0.680013       -18.5041
 206   2.0000      -0.668113       -18.1803
 207   2.0000      -0.663995       -18.0682
 208   2.0000      -0.657558       -17.8931
 209   2.0000      -0.654153       -17.8004
 210   2.0000      -0.652227       -17.7480
 211   2.0000      -0.645558       -17.5665
 212   2.0000      -0.641885       -17.4666
 213   2.0000      -0.636641       -17.3239
 214   2.0000      -0.630773       -17.1642
 215   2.0000      -0.622031       -16.9263
 216   2.0000      -0.618002       -16.8167
 217   2.0000      -0.616468       -16.7749
 218   2.0000      -0.612729       -16.6732
 219   2.0000      -0.604340       -16.4449
 220   2.0000      -0.602119       -16.3845
 221   2.0000      -0.597752       -16.2657
 222   2.0000      -0.590404       -16.0657
 223   2.0000      -0.589400       -16.0384
 224   2.0000      -0.585955       -15.9446
 225   2.0000      -0.585591       -15.9348
 226   2.0000      -0.584697       -15.9104
 227   2.0000      -0.581474       -15.8227
 228   2.0000      -0.580303       -15.7908
 229   2.0000      -0.579739       -15.7755
 230   2.0000      -0.577296       -15.7090
 231   2.0000      -0.574848       -15.6424
 232   2.0000      -0.569822       -15.5056
 233   2.0000      -0.568143       -15.4600
 234   2.0000      -0.564996       -15.3743
 235   2.0000      -0.561241       -15.2722
 236   2.0000      -0.556880       -15.1535
 237   2.0000      -0.553629       -15.0650
 238   2.0000      -0.551051       -14.9949
 239   2.0000      -0.545350       -14.8397
 240   2.0000      -0.543751       -14.7962
 241   2.0000      -0.541802       -14.7432
 242   2.0000      -0.540237       -14.7006
 243   2.0000      -0.539798       -14.6887
 244   2.0000      -0.536982       -14.6120
 245   2.0000      -0.535580       -14.5739
 246   2.0000      -0.533424       -14.5152
 247   2.0000      -0.531625       -14.4663
 248   2.0000      -0.526528       -14.3276
 249   2.0000      -0.524184       -14.2638
 250   2.0000      -0.523722       -14.2512
 251   2.0000      -0.520341       -14.1592
 252   2.0000      -0.516934       -14.0665
 253   2.0000      -0.513933       -13.9848
 254   2.0000      -0.511233       -13.9114
 255   2.0000      -0.508300       -13.8316
 256   2.0000      -0.502378       -13.6704
 257   2.0000      -0.499983       -13.6052
 258   2.0000      -0.496856       -13.5201
 259   2.0000      -0.496210       -13.5026
 260   2.0000      -0.496133       -13.5005
 261   2.0000      -0.495324       -13.4785
 262   2.0000      -0.493712       -13.4346
 263   2.0000      -0.490271       -13.3410
 264   2.0000      -0.489770       -13.3273
 265   2.0000      -0.487407       -13.2630
 266   2.0000      -0.486794       -13.2463
 267   2.0000      -0.481350       -13.0982
 268   2.0000      -0.480939       -13.0870
 269   2.0000      -0.480493       -13.0749
 270   2.0000      -0.477568       -12.9953
 271   2.0000      -0.473128       -12.8745
 272   2.0000      -0.470652       -12.8071
 273   2.0000      -0.469395       -12.7729
 274   2.0000      -0.467484       -12.7209
 275   2.0000      -0.466661       -12.6985
 276   2.0000      -0.463172       -12.6036
 277   2.0000      -0.462629       -12.5888
 278   2.0000      -0.461435       -12.5563
 279   2.0000      -0.459992       -12.5170
 280   2.0000      -0.457826       -12.4581
 281   2.0000      -0.456087       -12.4108
 282   2.0000      -0.452322       -12.3083
 283   2.0000      -0.449317       -12.2265
 284   2.0000      -0.448611       -12.2073
 285   2.0000      -0.448142       -12.1946
 286   2.0000      -0.445794       -12.1307
 287   2.0000      -0.439782       -11.9671
 288   2.0000      -0.438490       -11.9319
 289   2.0000      -0.435037       -11.8380
 290   2.0000      -0.434102       -11.8125
 291   2.0000      -0.430374       -11.7111
 292   2.0000      -0.425071       -11.5668
 293   2.0000      -0.425025       -11.5655
 294   2.0000      -0.424924       -11.5628
 295   2.0000      -0.422624       -11.5002
 296   2.0000      -0.402116       -10.9421
 297   2.0000      -0.399003       -10.8574
 298   2.0000      -0.396006       -10.7759
 299   2.0000      -0.384525       -10.4635
 300   2.0000      -0.382560       -10.4100
 301   2.0000      -0.382300       -10.4029
 302   2.0000      -0.377001       -10.2587
 303   2.0000      -0.374666       -10.1952
 304   2.0000      -0.373172       -10.1545
 305   2.0000      -0.370625       -10.0852
 306   2.0000      -0.367412        -9.9978
 307   2.0000      -0.351413        -9.5624
 308   2.0000      -0.348371        -9.4797
 309   2.0000      -0.344495        -9.3742
 310   2.0000      -0.339733        -9.2446
 311   2.0000      -0.324680        -8.8350
 312   2.0000      -0.310833        -8.4582
 313   2.0000      -0.309553        -8.4234
 314   2.0000      -0.272476        -7.4144
 315   0.0000      -0.081378        -2.2144
 316   0.0000      -0.070558        -1.9200
 317   0.0000      -0.049170        -1.3380
 318   0.0000      -0.044970        -1.2237
 319   0.0000      -0.021860        -0.5948

MULLIKEN ATOMIC CHARGES
-----------------------
   0 C :    0.235734
   1 O :   -0.206392
   2 C :   -0.060806
   3 C :   -0.003218
   4 C :   -0.043658
   5 Br:    0.021471
   6 C :   -0.053828
   7 Br:    0.030845
   8 C :    0.007787
   9 C :    0.015417
  10 C :    0.293065
  11 C :   -0.381697
  12 C :   -0.118114
  13 N :    0.098270
  14 C :   -0.129359
  15 N :    0.106218
  16 C :   -0.153616
  17 C :    0.009938
  18 C :   -0.099037
  19 S :    0.178417
  20 C :   -0.005575
  21 C :   -0.091455
  22 C :   -0.085741
  23 C :    0.000910
  24 C :   -0.015458
  25 S :    0.205680
  26 C :   -0.058054
  27 C :    0.029779
  28 N :   -0.253607
  29 C :    0.062965
  30 C :    0.108458
  31 C :   -0.121013
  32 C :    0.021864
  33 N :   -0.299800
  34 S :    0.485826
  35 N :   -0.299219
  36 C :    0.021020
  37 C :   -0.117875
  38 C :    0.113568
  39 N :   -0.256279
  40 C :    0.063862
  41 C :   -0.051077
  42 C :    0.046010
  43 C :   -0.058750
  44 S :    0.200697
  45 C :   -0.131633
  46 C :   -0.030857
  47 S :    0.144087
  48 C :   -0.154986
  49 C :   -0.021633
  50 C :    0.002848
  51 C :   -0.037435
  52 C :    0.035406
  53 C :   -0.156103
  54 C :    0.269223
  55 C :   -0.365050
  56 C :   -0.127487
  57 N :    0.111178
  58 C :   -0.149441
  59 N :    0.120687
  60 C :    0.020715
  61 C :    0.007838
  62 C :   -0.053890
  63 Br:    0.030405
  64 C :   -0.045942
  65 Br:    0.023428
  66 C :   -0.000130
  67 C :   -0.062527
  68 C :    0.198563
  69 O :   -0.173873
  70 C :   -0.051565
  71 H :    0.032020
  72 H :    0.032723
  73 H :   -0.008644
  74 H :    0.041963
  75 H :    0.062646
  76 H :    0.037105
  77 H :    0.058714
  78 H :    0.033308
  79 H :    0.040141
  80 H :    0.063256
  81 H :    0.042707
  82 H :    0.053229
  83 H :    0.052287
  84 H :    0.057486
  85 H :    0.057906
  86 H :    0.037340
  87 H :    0.083395
  88 H :    0.046481
  89 H :    0.044779
  90 H :    0.047881
  91 H :    0.057257
  92 H :    0.032875
  93 H :    0.032954
  94 H :    0.056522
  95 H :    0.050202
  96 H :    0.057474
Sum of atomic charges:    0.0000000

LOEWDIN ATOMIC CHARGES
----------------------
   0 C :    0.092661
   1 O :   -0.172033
   2 C :   -0.045216
   3 C :    0.004896
   4 C :   -0.126033
   5 Br:    0.134242
   6 C :   -0.121941
   7 Br:    0.139149
   8 C :   -0.004372
   9 C :   -0.014512
  10 C :    0.081476
  11 C :   -0.151580
  12 C :   -0.012392
  13 N :   -0.058874
  14 C :   -0.015409
  15 N :   -0.052817
  16 C :   -0.134952
  17 C :    0.068512
  18 C :   -0.195780
  19 S :    0.470144
  20 C :   -0.190969
  21 C :   -0.198844
  22 C :   -0.005455
  23 C :   -0.034382
  24 C :   -0.044545
  25 S :    0.418045
  26 C :   -0.166561
  27 C :   -0.045409
  28 N :    0.037974
  29 C :    0.040577
  30 C :    0.012980
  31 C :   -0.079526
  32 C :   -0.053586
  33 N :   -0.286267
  34 S :    0.602671
  35 N :   -0.286392
  36 C :   -0.053837
  37 C :   -0.077798
  38 C :    0.011233
  39 N :    0.036636
  40 C :    0.040035
  41 C :   -0.063393
  42 C :   -0.042560
  43 C :   -0.172591
  44 S :    0.440147
  45 C :   -0.192210
  46 C :   -0.189120
  47 S :    0.416273
  48 C :   -0.184285
  49 C :    0.002136
  50 C :   -0.038806
  51 C :   -0.058330
  52 C :    0.057659
  53 C :   -0.120814
  54 C :    0.075858
  55 C :   -0.143204
  56 C :   -0.015087
  57 N :   -0.049400
  58 C :   -0.019980
  59 N :   -0.051360
  60 C :   -0.016795
  61 C :   -0.004824
  62 C :   -0.122296
  63 Br:    0.138588
  64 C :   -0.125456
  65 Br:    0.135665
  66 C :    0.005274
  67 C :   -0.044380
  68 C :    0.086794
  69 O :   -0.139547
  70 C :   -0.063341
  71 H :    0.048606
  72 H :    0.046923
  73 H :    0.047663
  74 H :    0.034968
  75 H :    0.040101
  76 H :    0.028254
  77 H :    0.036497
  78 H :    0.026001
  79 H :    0.024792
  80 H :    0.030813
  81 H :    0.025583
  82 H :    0.027828
  83 H :    0.029423
  84 H :    0.038507
  85 H :    0.039155
  86 H :    0.035402
  87 H :    0.048860
  88 H :    0.030066
  89 H :    0.033900
  90 H :    0.015824
  91 H :    0.046595
  92 H :    0.046796
  93 H :    0.049134
  94 H :    0.039029
  95 H :    0.028355
  96 H :    0.038558

  Mayer bond orders larger than 0.100000
B(  0-C ,  1-O ) :   2.1180 B(  0-C ,  2-C ) :   0.9609 B(  0-C , 16-C ) :   0.9857
B(  2-C ,  3-C ) :   1.3982 B(  2-C ,  9-C ) :   1.3326 B(  3-C ,  4-C ) :   1.3590
B(  3-C , 71-H ) :   1.0047 B(  4-C ,  5-Br) :   1.0439 B(  4-C ,  6-C ) :   1.4349
B(  6-C ,  7-Br) :   1.0691 B(  6-C ,  8-C ) :   1.3773 B(  8-C ,  9-C ) :   1.3942
B(  8-C , 72-H ) :   0.9781 B(  9-C , 10-C ) :   0.9982 B( 10-C , 11-C ) :   1.6247
B( 10-C , 16-C ) :   1.1137 B( 11-C , 12-C ) :   1.1403 B( 11-C , 14-C ) :   1.1335
B( 12-C , 13-N ) :   2.9527 B( 14-C , 15-N ) :   2.9635 B( 16-C , 17-C ) :   1.5004
B( 17-C , 18-C ) :   1.3357 B( 17-C , 73-H ) :   0.9257 B( 18-C , 19-S ) :   1.0327
B( 18-C , 22-C ) :   1.3758 B( 19-S , 20-C ) :   1.0406 B( 20-C , 21-C ) :   1.4047
B( 20-C , 27-C ) :   1.3125 B( 21-C , 22-C ) :   1.4602 B( 21-C , 25-S ) :   1.0183
B( 22-C , 23-C ) :   1.0551 B( 23-C , 24-C ) :   1.0875 B( 23-C , 74-H ) :   0.9325
B( 23-C , 75-H ) :   0.9136 B( 24-C , 76-H ) :   0.9702 B( 24-C , 77-H ) :   0.9708
B( 24-C , 78-H ) :   0.9730 B( 25-S , 26-C ) :   1.0200 B( 26-C , 27-C ) :   1.4083
B( 26-C , 31-C ) :   1.3978 B( 27-C , 28-N ) :   1.1399 B( 28-N , 29-C ) :   0.9323
B( 28-N , 30-C ) :   1.1631 B( 29-C , 70-C ) :   1.1008 B( 29-C , 79-H ) :   0.9472
B( 29-C , 80-H ) :   0.9429 B( 30-C , 31-C ) :   1.3946 B( 30-C , 38-C ) :   1.1415
B( 31-C , 32-C ) :   1.1310 B( 32-C , 33-N ) :   1.6156 B( 32-C , 36-C ) :   1.1405
B( 33-N , 34-S ) :   1.2311 B( 33-N , 35-N ) :   0.1311 B( 34-S , 35-N ) :   1.2309
B( 35-N , 36-C ) :   1.6146 B( 36-C , 37-C ) :   1.1354 B( 37-C , 38-C ) :   1.3971
B( 37-C , 43-C ) :   1.3851 B( 38-C , 39-N ) :   1.1568 B( 39-N , 40-C ) :   0.9346
B( 39-N , 42-C ) :   1.1424 B( 40-C , 41-C ) :   1.0990 B( 40-C , 81-H ) :   0.9472
B( 40-C , 82-H ) :   0.9449 B( 41-C , 83-H ) :   0.9641 B( 41-C , 84-H ) :   0.9679
B( 41-C , 85-H ) :   0.9631 B( 42-C , 43-C ) :   1.4108 B( 42-C , 46-C ) :   1.3021
B( 43-C , 44-S ) :   1.0268 B( 44-S , 45-C ) :   1.0366 B( 45-C , 46-C ) :   1.4494
B( 45-C , 49-C ) :   1.3688 B( 46-C , 47-S ) :   1.0764 B( 47-S , 48-C ) :   1.0407
B( 48-C , 49-C ) :   1.4775 B( 48-C , 52-C ) :   1.2222 B( 49-C , 50-C ) :   1.0659
B( 50-C , 51-C ) :   1.0801 B( 50-C , 86-H ) :   0.9228 B( 50-C , 87-H ) :   0.9004
B( 51-C , 88-H ) :   0.9751 B( 51-C , 89-H ) :   0.9662 B( 51-C , 90-H ) :   0.9612
B( 52-C , 53-C ) :   1.5761 B( 52-C , 91-H ) :   0.9302 B( 53-C , 54-C ) :   1.0892
B( 53-C , 68-C ) :   0.9795 B( 54-C , 55-C ) :   1.6533 B( 54-C , 60-C ) :   1.0092
B( 55-C , 56-C ) :   1.1288 B( 55-C , 58-C ) :   1.1327 B( 56-C , 57-N ) :   2.9698
B( 58-C , 59-N ) :   2.9922 B( 60-C , 61-C ) :   1.3901 B( 60-C , 67-C ) :   1.3296
B( 61-C , 62-C ) :   1.3821 B( 61-C , 92-H ) :   0.9778 B( 62-C , 63-Br) :   1.0669
B( 62-C , 64-C ) :   1.4327 B( 64-C , 65-Br) :   1.0456 B( 64-C , 66-C ) :   1.3626
B( 66-C , 67-C ) :   1.4020 B( 66-C , 93-H ) :   1.0035 B( 67-C , 68-C ) :   0.9331
B( 68-C , 69-O ) :   2.1793 B( 70-C , 94-H ) :   0.9634 B( 70-C , 95-H ) :   0.9638
B( 70-C , 96-H ) :   0.9683

-----------------------------------------------------------------------------
         ABSORPTION SPECTRUM VIA TRANSITION ELECTRIC DIPOLE MOMENTS
-----------------------------------------------------------------------------
State   Energy  Wavelength   fosc         T2         TX        TY        TZ
        (cm-1)    (nm)                  (au**2)     (au)      (au)      (au)
-----------------------------------------------------------------------------
   0   19450.0    514.1   2.999721915  50.77341  -0.76703  -7.07076   0.43530
   1   24725.0    404.4   0.692116058   9.21550   2.84358  -0.13010   1.05482
   2   28466.6    351.3   0.044205499   0.51123  -0.39672  -0.52243  -0.28444
   3   29122.4    343.4   0.198838673   2.24776  -1.40078   0.46742  -0.25903
   4   29196.9    342.5   0.028529634   0.32169  -0.06616   0.49229  -0.27379
   5   30172.1    331.4   0.157543511   1.71898   0.66356   1.12403   0.12336
   6   31123.1    321.3   0.010007751   0.10586   0.09082   0.24981  -0.18763
   7   32748.7    305.4   0.021236039   0.21348  -0.07299  -0.33413  -0.31065
   8   34196.6    292.4   0.175562417   1.69015  -0.76879  -0.12136  -1.04133
   9   35457.8    282.0   0.122095417   1.13361   1.01133  -0.08875   0.32084
  10   36333.3    275.2   0.604994299   5.48178  -1.11662   1.62700   1.26009
  11   36867.9    271.2   0.349040703   3.11676   1.53679  -0.59817   0.63025
  12   37052.9    269.9   0.674496775   5.99285  -1.62838   0.00095  -1.82790
  13   38069.0    262.7   0.101107966   0.87436  -0.03286   0.87251  -0.33466
  14   38873.1    257.2   0.093603623   0.79272  -0.09050   0.60038   0.65121
  15   39718.4    251.8   0.092645810   0.76791   0.76195   0.11415  -0.41750

Dispersion correction           -0.066233201
FINAL SINGLE POINT ENERGY    -14868.893627570445

DIPOLE MOMENT
-------------
                                X             Y             Z
Electronic contribution:   -154.91802      76.77090      14.09426
Nuclear contribution   :    154.91597     -76.04766     -13.34438
                        -----------------------------------------
Total Dipole Moment    :     -0.00205       0.72324       0.74988
                        -----------------------------------------
Magnitude (a.u.)       :      1.04182
Magnitude (Debye)      :      2.64810

Rotational constants in cm-1:     0.001075     0.000157     0.000142
Rotational constants in MHz :    32.232359     4.717710     4.256892

                             ****ORCA TERMINATED NORMALLY****
TOTAL RUN TIME: 0 days 0 hours 11 minutes 30 seconds 216 msec
