                         Program Version 4.2.0 -  RELEASE  -
|  1> # ORCA input file
|  2> # SCF done       -189.554662887018          0.001009567188
|  3> ! wb97x-d3 def2-SVP def2/J RIJCOSX Grid4 TightSCF
|  4> %maxcore 5000
|  5> %tddft
|  6>     Mode sTDDFT
|  7>     Ethresh 5.0
|  8>     maxcore 5000
|  9> end
| 10>
| 11> %pal
| 12>   nprocs 6
| 13>   end
| 14> * xyz 0 1
| 15>    C       -0.33889        -0.62916        -2.59067
| 16>    O       -0.54698         0.56910        -2.67625
| 17>    C       -0.47595        -1.61224        -3.68607
| 18>    C       -0.84743        -1.39559        -4.99596
| 19>    C       -0.91128        -2.48819        -5.85383
| 20>   Cl       -1.37091        -2.25871        -7.49417
| 21>    C       -0.60291        -3.76381        -5.37674
| 22>   Br       -0.69290        -5.25071        -6.54269
| 23>    C       -0.22792        -3.98021        -4.05545
| 24>    C       -0.16317        -2.89348        -3.20027
| 25>    C        0.18607        -2.78746        -1.78282
| 26>    C        0.53755        -3.84338        -0.97958
| 27>    C        0.86676        -3.76790         0.38943
| 28>    N        1.14552        -3.79911         1.50403
| 29>    C        0.61538        -5.18020        -1.42358
| 30>    N        0.69816        -6.28558        -1.72214
| 31>    C        0.08026        -1.39121        -1.41664
| 32>    C        0.33425        -0.88099        -0.16184
| 33>    C        0.27357         0.42204         0.32859
| 34>    S       -0.18573         1.84254        -0.61729
| 35>    C        0.04027         2.84883         0.76185
| 36>    C        0.44787         2.11251         1.89109
| 37>    C        0.57942         0.75202         1.66433
| 38>    C        1.04353        -0.20263         2.71449
| 39>    C        2.55420        -0.43142         2.61348
| 40>    S        0.68008         3.09729         3.32430
| 41>    C        0.22718         4.48750         2.40280
| 42>    C       -0.07478         4.20664         1.06334
| 43>    N       -0.41451         5.36199         0.40444
| 44>    C       -1.22606         5.27167        -0.79251
| 45>    C       -0.34154         6.39603         1.32047
| 46>    C        0.03103         5.86290         2.58777
| 47>    C        0.04224         6.66307         3.75240
| 48>    N        0.32370         6.30496         4.99490
| 49>    S        0.09415         7.58255         5.96224
| 50>    N       -0.37263         8.64324         4.83341
| 51>    C       -0.36299         8.03699         3.65645
| 52>    C       -0.63275         8.58318         2.38201
| 53>    C       -0.54140         7.79444         1.20236
| 54>    N       -0.70211         8.61910         0.10403
| 55>    C       -0.24944         8.44208        -1.25932
| 56>    C       -1.39612         8.55126        -2.26028
| 57>    C       -0.93220         9.88362         0.56773
| 58>    C       -0.90482         9.89966         1.97060
| 59>    S       -1.12479        11.46795         2.67921
| 60>    C       -1.25739        12.10353         1.07224
| 61>    C       -1.13340        11.17641         0.07772
| 62>    S       -1.31357        12.29762        -1.28839
| 63>    C       -0.20563        14.23573         0.38759
| 64>    C       -1.40771        13.38037         0.28926
| 65>    C       -2.73764        14.10039         0.42252
| 66>    C       -3.02479        15.03552        -0.74613
| 67>    C        1.11569        13.85192         0.32967
| 68>    C        1.85158        15.04147         0.49661
| 69>    C        3.17779        15.60922         0.57046
| 70>    C        4.34706        14.92156         0.44953
| 71>    C        5.63181        15.49926         0.52582
| 72>    N        6.69101        15.93439         0.58253
| 73>    C        4.32803        13.52501         0.22431
| 74>    N        4.30265        12.39437         0.03878
| 75>    C        2.96742        17.04898         0.78656
| 76>    C        3.87485        18.07504         0.93122
| 77>    C        3.39535        19.37080         1.12253
| 78>   Br        4.64608        20.77784         1.31947
| 79>    C        2.02983        19.63898         1.16818
| 80>   Cl        1.46524        21.24437         1.40356
| 81>    C        1.10181        18.60688         1.02230
| 82>    C        1.56882        17.32470         0.83373
| 83>    C        0.91443        16.05594         0.65002
| 84>    O       -0.32655        15.57798         0.58389
| 85>    C       -2.70575         5.44886        -0.46196
| 86>    H       -1.08286        -0.40270        -5.34487
| 87>    H        0.00146        -4.98225        -3.73104
| 88>    H        0.63686        -1.60369         0.58340
| 89>    H        0.81403         0.22792         3.69120
| 90>    H        0.52658        -1.15962         2.63253
| 91>    H        3.08838         0.50708         2.74081
| 92>    H        2.87247        -1.12333         3.38754
| 93>    H        2.81686        -0.85306         1.64610
| 94>    H       -0.91607         6.00008        -1.53780
| 95>    H       -1.05706         4.27648        -1.21015
| 96>    H        0.47651         9.23552        -1.47359
| 97>    H        0.27885         7.49186        -1.33517
| 98>    H       -1.82066         9.55182        -2.22827
| 99>    H       -1.02396         8.37082        -3.26481
|100>    H       -2.18501         7.83680        -2.04228
|101>    H       -3.52532        13.34625         0.48700
|102>    H       -2.72546        14.65995         1.36146
|103>    H       -3.00215        14.48161        -1.68282
|104>    H       -4.01023        15.47910        -0.63046
|105>    H       -2.29083        15.83483        -0.79785
|106>    H        1.48416        12.85779         0.18099
|107>    H        4.93947        17.90272         0.90065
|108>    H        0.04607        18.82178         1.05851
|109>    H       -3.02344         4.69674         0.25656
|110>    H       -2.88971         6.43205        -0.03380
|111>    H       -3.30166         5.33828        -1.36374
|112> *
|113>
|114>                          ****END OF INPUT****

CARTESIAN COORDINATES (ANGSTROEM)
---------------------------------
  C     -0.338890   -0.629160   -2.590670
  O     -0.546980    0.569100   -2.676250
  C     -0.475950   -1.612240   -3.686070
  C     -0.847430   -1.395590   -4.995960
  C     -0.911280   -2.488190   -5.853830
  Cl    -1.370910   -2.258710   -7.494170
  C     -0.602910   -3.763810   -5.376740
  Br    -0.692900   -5.250710   -6.542690
  C     -0.227920   -3.980210   -4.055450
  C     -0.163170   -2.893480   -3.200270
  C      0.186070   -2.787460   -1.782820
  C      0.537550   -3.843380   -0.979580
  C      0.866760   -3.767900    0.389430
  N      1.145520   -3.799110    1.504030
  C      0.615380   -5.180200   -1.423580
  N      0.698160   -6.285580   -1.722140
  C      0.080260   -1.391210   -1.416640
  C      0.334250   -0.880990   -0.161840
  C      0.273570    0.422040    0.328590
  S     -0.185730    1.842540   -0.617290
  C      0.040270    2.848830    0.761850
  C      0.447870    2.112510    1.891090
  C      0.579420    0.752020    1.664330
  C      1.043530   -0.202630    2.714490
  C      2.554200   -0.431420    2.613480
  S      0.680080    3.097290    3.324300
  C      0.227180    4.487500    2.402800
  C     -0.074780    4.206640    1.063340
  N     -0.414510    5.361990    0.404440
  C     -1.226060    5.271670   -0.792510
  C     -0.341540    6.396030    1.320470
  C      0.031030    5.862900    2.587770
  C      0.042240    6.663070    3.752400
  N      0.323700    6.304960    4.994900
  S      0.094150    7.582550    5.962240
  N     -0.372630    8.643240    4.833410
  C     -0.362990    8.036990    3.656450
  C     -0.632750    8.583180    2.382010
  C     -0.541400    7.794440    1.202360
  N     -0.702110    8.619100    0.104030
  C     -0.249440    8.442080   -1.259320
  C     -1.396120    8.551260   -2.260280
  C     -0.932200    9.883620    0.567730
  C     -0.904820    9.899660    1.970600
  S     -1.124790   11.467950    2.679210
  C     -1.257390   12.103530    1.072240
  C     -1.133400   11.176410    0.077720
  S     -1.313570   12.297620   -1.288390
  C     -0.205630   14.235730    0.387590
  C     -1.407710   13.380370    0.289260
  C     -2.737640   14.100390    0.422520
  C     -3.024790   15.035520   -0.746130
  C      1.115690   13.851920    0.329670
  C      1.851580   15.041470    0.496610
  C      3.177790   15.609220    0.570460
  C      4.347060   14.921560    0.449530
  C      5.631810   15.499260    0.525820
  N      6.691010   15.934390    0.582530
  C      4.328030   13.525010    0.224310
  N      4.302650   12.394370    0.038780
  C      2.967420   17.048980    0.786560
  C      3.874850   18.075040    0.931220
  C      3.395350   19.370800    1.122530
  Br     4.646080   20.777840    1.319470
  C      2.029830   19.638980    1.168180
  Cl     1.465240   21.244370    1.403560
  C      1.101810   18.606880    1.022300
  C      1.568820   17.324700    0.833730
  C      0.914430   16.055940    0.650020
  O     -0.326550   15.577980    0.583890
  C     -2.705750    5.448860   -0.461960
  H     -1.082860   -0.402700   -5.344870
  H      0.001460   -4.982250   -3.731040
  H      0.636860   -1.603690    0.583400
  H      0.814030    0.227920    3.691200
  H      0.526580   -1.159620    2.632530
  H      3.088380    0.507080    2.740810
  H      2.872470   -1.123330    3.387540
  H      2.816860   -0.853060    1.646100
  H     -0.916070    6.000080   -1.537800
  H     -1.057060    4.276480   -1.210150
  H      0.476510    9.235520   -1.473590
  H      0.278850    7.491860   -1.335170
  H     -1.820660    9.551820   -2.228270
  H     -1.023960    8.370820   -3.264810
  H     -2.185010    7.836800   -2.042280
  H     -3.525320   13.346250    0.487000
  H     -2.725460   14.659950    1.361460
  H     -3.002150   14.481610   -1.682820
  H     -4.010230   15.479100   -0.630460
  H     -2.290830   15.834830   -0.797850
  H      1.484160   12.857790    0.180990
  H      4.939470   17.902720    0.900650
  H      0.046070   18.821780    1.058510
  H     -3.023440    4.696740    0.256560
  H     -2.889710    6.432050   -0.033800
  H     -3.301660    5.338280   -1.363740

 Total Charge           Charge          ....    0
 Multiplicity           Mult            ....    1
 Number of Electrons    NEL             ....  594
 Basis Dimension        Dim             .... 1188

ORBITAL ENERGIES
----------------

  NO   OCC          E(Eh)            E(eV)
   0   2.0000    -482.880059    -13139.8344
   1   2.0000    -482.878132    -13139.7820
   2   2.0000    -101.629675     -2765.4840
   3   2.0000    -101.625652     -2765.3746
   4   2.0000     -89.028855     -2422.5983
   5   2.0000     -88.992900     -2421.6199
   6   2.0000     -88.990952     -2421.5669
   7   2.0000     -88.988187     -2421.4917
   8   2.0000     -88.973483     -2421.0916
   9   2.0000     -62.597968     -1703.3773
  10   2.0000     -62.596063     -1703.3255
  11   2.0000     -56.416801     -1535.1792
  12   2.0000     -56.414896     -1535.1274
  13   2.0000     -56.414113     -1535.1061
  14   2.0000     -56.413992     -1535.1028
  15   2.0000     -56.412220     -1535.0545
  16   2.0000     -56.412071     -1535.0505
  17   2.0000     -19.370093      -527.0870
  18   2.0000     -19.258798      -524.0585
  19   2.0000     -14.520552      -395.1243
  20   2.0000     -14.518994      -395.0819
  21   2.0000     -14.467228      -393.6733
  22   2.0000     -14.467066      -393.6689
  23   2.0000     -14.466106      -393.6427
  24   2.0000     -14.463516      -393.5723
  25   2.0000     -14.454381      -393.3237
  26   2.0000     -14.447093      -393.1254
  27   2.0000     -10.406135      -283.1653
  28   2.0000     -10.399405      -282.9822
  29   2.0000     -10.395807      -282.8843
  30   2.0000     -10.392826      -282.8032
  31   2.0000     -10.392013      -282.7811
  32   2.0000     -10.391738      -282.7736
  33   2.0000     -10.389266      -282.7063
  34   2.0000     -10.387024      -282.6453
  35   2.0000     -10.385288      -282.5980
  36   2.0000     -10.384083      -282.5653
  37   2.0000     -10.379933      -282.4523
  38   2.0000     -10.375160      -282.3225
  39   2.0000     -10.373430      -282.2754
  40   2.0000     -10.369403      -282.1658
  41   2.0000     -10.367278      -282.1080
  42   2.0000     -10.366102      -282.0760
  43   2.0000     -10.364584      -282.0347
  44   2.0000     -10.362367      -281.9743
  45   2.0000     -10.360571      -281.9255
  46   2.0000     -10.358922      -281.8806
  47   2.0000     -10.355854      -281.7971
  48   2.0000     -10.354289      -281.7545
  49   2.0000     -10.353799      -281.7412
  50   2.0000     -10.353787      -281.7409
  51   2.0000     -10.353498      -281.7330
  52   2.0000     -10.351958      -281.6911
  53   2.0000     -10.351559      -281.6803
  54   2.0000     -10.350374      -281.6480
  55   2.0000     -10.349185      -281.6156
  56   2.0000     -10.348764      -281.6042
  57   2.0000     -10.348220      -281.5894
  58   2.0000     -10.347371      -281.5663
  59   2.0000     -10.346449      -281.5412
  60   2.0000     -10.345590      -281.5178
  61   2.0000     -10.343624      -281.4643
  62   2.0000     -10.342636      -281.4374
  63   2.0000     -10.342507      -281.4339
  64   2.0000     -10.341476      -281.4059
  65   2.0000     -10.339827      -281.3610
  66   2.0000     -10.337141      -281.2879
  67   2.0000     -10.334702      -281.2215
  68   2.0000     -10.334490      -281.2158
  69   2.0000     -10.330411      -281.1048
  70   2.0000     -10.327310      -281.0204
  71   2.0000     -10.325290      -280.9654
  72   2.0000     -10.325152      -280.9617
  73   2.0000     -10.322218      -280.8818
  74   2.0000     -10.316060      -280.7143
  75   2.0000     -10.316007      -280.7128
  76   2.0000     -10.312174      -280.6085
  77   2.0000     -10.299955      -280.2760
  78   2.0000     -10.294655      -280.1318
  79   2.0000      -9.606372      -261.4027
  80   2.0000      -9.602362      -261.2935
  81   2.0000      -8.824931      -240.1386
  82   2.0000      -8.823028      -240.0868
  83   2.0000      -8.140043      -221.5018
  84   2.0000      -8.105186      -220.5533
  85   2.0000      -8.102026      -220.4673
  86   2.0000      -8.100934      -220.4376
  87   2.0000      -8.085230      -220.0103
  88   2.0000      -7.366338      -200.4482
  89   2.0000      -7.362337      -200.3394
  90   2.0000      -7.356409      -200.1781
  91   2.0000      -7.355798      -200.1614
  92   2.0000      -7.352398      -200.0689
  93   2.0000      -7.351775      -200.0520
  94   2.0000      -6.656209      -181.1247
  95   2.0000      -6.654312      -181.0730
  96   2.0000      -6.641882      -180.7348
  97   2.0000      -6.641300      -180.7190
  98   2.0000      -6.640056      -180.6851
  99   2.0000      -6.639316      -180.6650
 100   2.0000      -6.101810      -166.0387
 101   2.0000      -6.093973      -165.8254
 102   2.0000      -6.091750      -165.7649
 103   2.0000      -6.065189      -165.0422
 104   2.0000      -6.062170      -164.9600
 105   2.0000      -6.061045      -164.9294
 106   2.0000      -6.061016      -164.9286
 107   2.0000      -6.057441      -164.8314
 108   2.0000      -6.057004      -164.8195
 109   2.0000      -6.056700      -164.8112
 110   2.0000      -6.053648      -164.7281
 111   2.0000      -6.051978      -164.6827
 112   2.0000      -6.045751      -164.5132
 113   2.0000      -6.042987      -164.4380
 114   2.0000      -6.034281      -164.2011
 115   2.0000      -2.768013       -75.3215
 116   2.0000      -2.766120       -75.2700
 117   2.0000      -2.764124       -75.2156
 118   2.0000      -2.763666       -75.2032
 119   2.0000      -2.762287       -75.1656
 120   2.0000      -2.761718       -75.1502
 121   2.0000      -2.752224       -74.8918
 122   2.0000      -2.752215       -74.8916
 123   2.0000      -2.750326       -74.8402
 124   2.0000      -2.750306       -74.8396
 125   2.0000      -1.285565       -34.9820
 126   2.0000      -1.176387       -32.0111
 127   2.0000      -1.154888       -31.4261
 128   2.0000      -1.147393       -31.2221
 129   2.0000      -1.139610       -31.0104
 130   2.0000      -1.074727       -29.2448
 131   2.0000      -1.063604       -28.9421
 132   2.0000      -1.059374       -28.8270
 133   2.0000      -1.052446       -28.6385
 134   2.0000      -1.051213       -28.6049
 135   2.0000      -1.049567       -28.5602
 136   2.0000      -1.045269       -28.4432
 137   2.0000      -1.036552       -28.2060
 138   2.0000      -1.031980       -28.0816
 139   2.0000      -1.025410       -27.9028
 140   2.0000      -1.009898       -27.4807
 141   2.0000      -1.002049       -27.2671
 142   2.0000      -0.991110       -26.9695
 143   2.0000      -0.984808       -26.7980
 144   2.0000      -0.982159       -26.7259
 145   2.0000      -0.975882       -26.5551
 146   2.0000      -0.968670       -26.3589
 147   2.0000      -0.954524       -25.9739
 148   2.0000      -0.952194       -25.9105
 149   2.0000      -0.946886       -25.7661
 150   2.0000      -0.934942       -25.4411
 151   2.0000      -0.933180       -25.3931
 152   2.0000      -0.924946       -25.1690
 153   2.0000      -0.921090       -25.0641
 154   2.0000      -0.912274       -24.8242
 155   2.0000      -0.905210       -24.6320
 156   2.0000      -0.902915       -24.5696
 157   2.0000      -0.895621       -24.3711
 158   2.0000      -0.891308       -24.2537
 159   2.0000      -0.879530       -23.9332
 160   2.0000      -0.867686       -23.6109
 161   2.0000      -0.862899       -23.4807
 162   2.0000      -0.860184       -23.4068
 163   2.0000      -0.845088       -22.9960
 164   2.0000      -0.836204       -22.7543
 165   2.0000      -0.833257       -22.6741
 166   2.0000      -0.822357       -22.3775
 167   2.0000      -0.806881       -21.9563
 168   2.0000      -0.803737       -21.8708
 169   2.0000      -0.790780       -21.5182
 170   2.0000      -0.789048       -21.4711
 171   2.0000      -0.786013       -21.3885
 172   2.0000      -0.781152       -21.2562
 173   2.0000      -0.763694       -20.7812
 174   2.0000      -0.756190       -20.5770
 175   2.0000      -0.754856       -20.5407
 176   2.0000      -0.751269       -20.4431
 177   2.0000      -0.746874       -20.3235
 178   2.0000      -0.735677       -20.0188
 179   2.0000      -0.731995       -19.9186
 180   2.0000      -0.731731       -19.9114
 181   2.0000      -0.730291       -19.8722
 182   2.0000      -0.718728       -19.5576
 183   2.0000      -0.706789       -19.2327
 184   2.0000      -0.698033       -18.9944
 185   2.0000      -0.688676       -18.7398
 186   2.0000      -0.684755       -18.6331
 187   2.0000      -0.681146       -18.5349
 188   2.0000      -0.674907       -18.3652
 189   2.0000      -0.668002       -18.1772
 190   2.0000      -0.664226       -18.0745
 191   2.0000      -0.655906       -17.8481
 192   2.0000      -0.650220       -17.6934
 193   2.0000      -0.646560       -17.5938
 194   2.0000      -0.637991       -17.3606
 195   2.0000      -0.634416       -17.2633
 196   2.0000      -0.631545       -17.1852
 197   2.0000      -0.625998       -17.0343
 198   2.0000      -0.623951       -16.9786
 199   2.0000      -0.618082       -16.8189
 200   2.0000      -0.613648       -16.6982
 201   2.0000      -0.607879       -16.5412
 202   2.0000      -0.602442       -16.3933
 203   2.0000      -0.600152       -16.3310
 204   2.0000      -0.594239       -16.1701
 205   2.0000      -0.590192       -16.0600
 206   2.0000      -0.587072       -15.9751
 207   2.0000      -0.583565       -15.8796
 208   2.0000      -0.582910       -15.8618
 209   2.0000      -0.581912       -15.8346
 210   2.0000      -0.578382       -15.7386
 211   2.0000      -0.576354       -15.6834
 212   2.0000      -0.575525       -15.6608
 213   2.0000      -0.572329       -15.5739
 214   2.0000      -0.571247       -15.5444
 215   2.0000      -0.567781       -15.4501
 216   2.0000      -0.565683       -15.3930
 217   2.0000      -0.565143       -15.3783
 218   2.0000      -0.563433       -15.3318
 219   2.0000      -0.554293       -15.0831
 220   2.0000      -0.552377       -15.0309
 221   2.0000      -0.547587       -14.9006
 222   2.0000      -0.547104       -14.8875
 223   2.0000      -0.546643       -14.8749
 224   2.0000      -0.542638       -14.7659
 225   2.0000      -0.540293       -14.7021
 226   2.0000      -0.539540       -14.6816
 227   2.0000      -0.534706       -14.5501
 228   2.0000      -0.530457       -14.4345
 229   2.0000      -0.529497       -14.4083
 230   2.0000      -0.521464       -14.1898
 231   2.0000      -0.520839       -14.1728
 232   2.0000      -0.515458       -14.0263
 233   2.0000      -0.511729       -13.9249
 234   2.0000      -0.511234       -13.9114
 235   2.0000      -0.508924       -13.8485
 236   2.0000      -0.504140       -13.7183
 237   2.0000      -0.503284       -13.6951
 238   2.0000      -0.502303       -13.6684
 239   2.0000      -0.500100       -13.6084
 240   2.0000      -0.497037       -13.5251
 241   2.0000      -0.496534       -13.5114
 242   2.0000      -0.495446       -13.4818
 243   2.0000      -0.493199       -13.4206
 244   2.0000      -0.492787       -13.4094
 245   2.0000      -0.491553       -13.3758
 246   2.0000      -0.488501       -13.2928
 247   2.0000      -0.488252       -13.2860
 248   2.0000      -0.486180       -13.2296
 249   2.0000      -0.485656       -13.2154
 250   2.0000      -0.480670       -13.0797
 251   2.0000      -0.478622       -13.0240
 252   2.0000      -0.476653       -12.9704
 253   2.0000      -0.475764       -12.9462
 254   2.0000      -0.473158       -12.8753
 255   2.0000      -0.472973       -12.8702
 256   2.0000      -0.471376       -12.8268
 257   2.0000      -0.469586       -12.7781
 258   2.0000      -0.466292       -12.6885
 259   2.0000      -0.464081       -12.6283
 260   2.0000      -0.462211       -12.5774
 261   2.0000      -0.461498       -12.5580
 262   2.0000      -0.460796       -12.5389
 263   2.0000      -0.456943       -12.4340
 264   2.0000      -0.454535       -12.3685
 265   2.0000      -0.451452       -12.2846
 266   2.0000      -0.450529       -12.2595
 267   2.0000      -0.446177       -12.1411
 268   2.0000      -0.441111       -12.0032
 269   2.0000      -0.440952       -11.9989
 270   2.0000      -0.440471       -11.9858
 271   2.0000      -0.437815       -11.9135
 272   2.0000      -0.437345       -11.9008
 273   2.0000      -0.434522       -11.8240
 274   2.0000      -0.431524       -11.7424
 275   2.0000      -0.425797       -11.5865
 276   2.0000      -0.422360       -11.4930
 277   2.0000      -0.422211       -11.4889
 278   2.0000      -0.406032       -11.0487
 279   2.0000      -0.397758       -10.8236
 280   2.0000      -0.396156       -10.7799
 281   2.0000      -0.395078       -10.7506
 282   2.0000      -0.393130       -10.6976
 283   2.0000      -0.390650       -10.6301
 284   2.0000      -0.381828       -10.3901
 285   2.0000      -0.375040       -10.2053
 286   2.0000      -0.369136       -10.0447
 287   2.0000      -0.367017        -9.9870
 288   2.0000      -0.356406        -9.6983
 289   2.0000      -0.354342        -9.6421
 290   2.0000      -0.343490        -9.3468
 291   2.0000      -0.339502        -9.2383
 292   2.0000      -0.324690        -8.8353
 293   2.0000      -0.318889        -8.6774
 294   2.0000      -0.307891        -8.3781
 295   2.0000      -0.297975        -8.1083
 296   2.0000      -0.268045        -7.2939
 297   0.0000      -0.076507        -2.0819
 298   0.0000      -0.071410        -1.9432
 299   0.0000      -0.043668        -1.1883
 300   0.0000      -0.018140        -0.4936
 301   0.0000      -0.003598        -0.0979

MULLIKEN ATOMIC CHARGES
-----------------------
   0 C :    0.231360
   1 O :   -0.205307
   2 C :   -0.061989
   3 C :   -0.003620
   4 C :    0.040598
   5 Cl:   -0.046059
   6 C :   -0.054833
   7 Br:    0.026919
   8 C :    0.001374
   9 C :    0.014473
  10 C :    0.292562
  11 C :   -0.386301
  12 C :   -0.117107
  13 N :    0.095538
  14 C :   -0.128545
  15 N :    0.104302
  16 C :   -0.153390
  17 C :    0.006450
  18 C :   -0.096632
  19 S :    0.179222
  20 C :   -0.006810
  21 C :   -0.091908
  22 C :   -0.088683
  23 C :    0.006682
  24 C :   -0.011869
  25 S :    0.203677
  26 C :   -0.054811
  27 C :    0.030658
  28 N :   -0.249030
  29 C :    0.068748
  30 C :    0.089851
  31 C :   -0.102155
  32 C :    0.016552
  33 N :   -0.297666
  34 S :    0.479311
  35 N :   -0.300942
  36 C :    0.011039
  37 C :   -0.094468
  38 C :    0.088241
  39 N :   -0.247531
  40 C :    0.048169
  41 C :   -0.037622
  42 C :   -0.015945
  43 C :   -0.086518
  44 S :    0.225043
  45 C :   -0.063806
  46 C :    0.011076
  47 S :    0.121595
  48 C :    0.306992
  49 C :   -0.492267
  50 C :    0.079975
  51 C :   -0.038342
  52 C :   -0.069600
  53 C :   -0.041700
  54 C :    0.242631
  55 C :   -0.327495
  56 C :   -0.126798
  57 N :    0.130372
  58 C :   -0.122268
  59 N :    0.122537
  60 C :   -0.011838
  61 C :   -0.003527
  62 C :   -0.068950
  63 Br:    0.021636
  64 C :    0.036427
  65 Cl:   -0.046616
  66 C :   -0.008855
  67 C :   -0.002294
  68 C :    0.202529
  69 O :   -0.205578
  70 C :   -0.051813
  71 H :    0.026152
  72 H :    0.032493
  73 H :   -0.009649
  74 H :    0.040282
  75 H :    0.059952
  76 H :    0.036352
  77 H :    0.055967
  78 H :    0.032692
  79 H :    0.031849
  80 H :    0.060489
  81 H :    0.064053
  82 H :    0.058735
  83 H :    0.042017
  84 H :    0.052439
  85 H :    0.039559
  86 H :    0.044364
  87 H :    0.045136
  88 H :    0.036376
  89 H :    0.046004
  90 H :    0.039572
  91 H :    0.036616
  92 H :    0.033813
  93 H :    0.017554
  94 H :    0.054904
  95 H :    0.052792
  96 H :    0.054436
Sum of atomic charges:   -0.0000000

LOEWDIN ATOMIC CHARGES
----------------------
   0 C :    0.091579
   1 O :   -0.172310
   2 C :   -0.044125
   3 C :   -0.000972
   4 C :   -0.129222
   5 Cl:    0.154323
   6 C :   -0.128233
   7 Br:    0.133605
   8 C :   -0.004431
   9 C :   -0.017013
  10 C :    0.081799
  11 C :   -0.154205
  12 C :   -0.012529
  13 N :   -0.060751
  14 C :   -0.015099
  15 N :   -0.055538
  16 C :   -0.137431
  17 C :    0.067772
  18 C :   -0.196520
  19 S :    0.467821
  20 C :   -0.188071
  21 C :   -0.200617
  22 C :   -0.004653
  23 C :   -0.033980
  24 C :   -0.043800
  25 S :    0.416684
  26 C :   -0.163240
  27 C :   -0.048286
  28 N :    0.031542
  29 C :    0.042890
  30 C :    0.017816
  31 C :   -0.082870
  32 C :   -0.052975
  33 N :   -0.287091
  34 S :    0.597571
  35 N :   -0.288787
  36 C :   -0.053379
  37 C :   -0.075204
  38 C :    0.004174
  39 N :    0.030919
  40 C :    0.042327
  41 C :   -0.064435
  42 C :   -0.041165
  43 C :   -0.180648
  44 S :    0.433197
  45 C :   -0.224838
  46 C :   -0.195314
  47 S :    0.254561
  48 C :    0.024564
  49 C :   -0.095996
  50 C :   -0.033275
  51 C :   -0.063451
  52 C :   -0.027530
  53 C :   -0.074202
  54 C :    0.081665
  55 C :   -0.109976
  56 C :   -0.015813
  57 N :   -0.030774
  58 C :   -0.008515
  59 N :   -0.038308
  60 C :   -0.026869
  61 C :    0.003898
  62 C :   -0.146839
  63 Br:    0.128170
  64 C :   -0.124747
  65 Cl:    0.156590
  66 C :   -0.029899
  67 C :   -0.015464
  68 C :    0.046673
  69 O :    0.039552
  70 C :   -0.062910
  71 H :    0.048066
  72 H :    0.046972
  73 H :    0.047423
  74 H :    0.034639
  75 H :    0.039506
  76 H :    0.028156
  77 H :    0.035762
  78 H :    0.025899
  79 H :    0.023456
  80 H :    0.029797
  81 H :    0.037702
  82 H :    0.030201
  83 H :    0.027200
  84 H :    0.037541
  85 H :    0.028261
  86 H :    0.038010
  87 H :    0.035414
  88 H :    0.022045
  89 H :    0.033292
  90 H :    0.022663
  91 H :    0.045160
  92 H :    0.047990
  93 H :    0.044975
  94 H :    0.036924
  95 H :    0.029519
  96 H :    0.036038

  Mayer bond orders larger than 0.100000
B(  0-C ,  1-O ) :   2.1206 B(  0-C ,  2-C ) :   0.9588 B(  0-C , 16-C ) :   0.9872
B(  2-C ,  3-C ) :   1.3797 B(  2-C ,  9-C ) :   1.3333 B(  3-C ,  4-C ) :   1.3521
B(  3-C , 71-H ) :   1.0114 B(  4-C ,  5-Cl) :   1.0575 B(  4-C ,  6-C ) :   1.4254
B(  6-C ,  7-Br) :   1.0622 B(  6-C ,  8-C ) :   1.3747 B(  8-C ,  9-C ) :   1.3929
B(  8-C , 72-H ) :   0.9782 B(  9-C , 10-C ) :   0.9982 B( 10-C , 11-C ) :   1.6226
B( 10-C , 16-C ) :   1.1175 B( 11-C , 12-C ) :   1.1405 B( 11-C , 14-C ) :   1.1337
B( 12-C , 13-N ) :   2.9517 B( 14-C , 15-N ) :   2.9632 B( 16-C , 17-C ) :   1.4916
B( 17-C , 18-C ) :   1.3456 B( 17-C , 73-H ) :   0.9249 B( 18-C , 19-S ) :   1.0291
B( 18-C , 22-C ) :   1.3713 B( 19-S , 20-C ) :   1.0413 B( 20-C , 21-C ) :   1.3984
B( 20-C , 27-C ) :   1.3232 B( 21-C , 22-C ) :   1.4658 B( 21-C , 25-S ) :   1.0182
B( 22-C , 23-C ) :   1.0545 B( 23-C , 24-C ) :   1.0875 B( 23-C , 74-H ) :   0.9327
B( 23-C , 75-H ) :   0.9132 B( 24-C , 76-H ) :   0.9702 B( 24-C , 77-H ) :   0.9712
B( 24-C , 78-H ) :   0.9729 B( 25-S , 26-C ) :   1.0229 B( 26-C , 27-C ) :   1.4167
B( 26-C , 31-C ) :   1.3768 B( 27-C , 28-N ) :   1.1276 B( 28-N , 29-C ) :   0.9393
B( 28-N , 30-C ) :   1.1688 B( 29-C , 70-C ) :   1.0974 B( 29-C , 79-H ) :   0.9461
B( 29-C , 80-H ) :   0.9466 B( 30-C , 31-C ) :   1.4002 B( 30-C , 38-C ) :   1.1380
B( 31-C , 32-C ) :   1.1357 B( 32-C , 33-N ) :   1.6189 B( 32-C , 36-C ) :   1.1361
B( 33-N , 34-S ) :   1.2299 B( 33-N , 35-N ) :   0.1315 B( 34-S , 35-N ) :   1.2299
B( 35-N , 36-C ) :   1.6146 B( 36-C , 37-C ) :   1.1353 B( 37-C , 38-C ) :   1.4077
B( 37-C , 43-C ) :   1.3828 B( 38-C , 39-N ) :   1.1500 B( 39-N , 40-C ) :   0.9193
B( 39-N , 42-C ) :   1.1459 B( 40-C , 41-C ) :   1.0868 B( 40-C , 81-H ) :   0.9519
B( 40-C , 82-H ) :   0.9587 B( 41-C , 83-H ) :   0.9632 B( 41-C , 84-H ) :   0.9686
B( 41-C , 85-H ) :   0.9661 B( 42-C , 43-C ) :   1.4330 B( 42-C , 46-C ) :   1.3896
B( 43-C , 44-S ) :   1.0384 B( 44-S , 45-C ) :   1.0735 B( 45-C , 46-C ) :   1.5986
B( 45-C , 49-C ) :   0.9895 B( 46-C , 47-S ) :   0.9288 B( 47-S , 49-C ) :   1.0635
B( 48-C , 49-C ) :   0.8463 B( 48-C , 52-C ) :   1.5585 B( 48-C , 69-O ) :   1.1016
B( 49-C , 50-C ) :   1.0029 B( 50-C , 51-C ) :   1.0795 B( 50-C , 86-H ) :   0.9397
B( 50-C , 87-H ) :   0.9347 B( 51-C , 88-H ) :   0.9675 B( 51-C , 89-H ) :   0.9715
B( 51-C , 90-H ) :   0.9719 B( 52-C , 53-C ) :   1.2207 B( 52-C , 91-H ) :   1.0175
B( 53-C , 54-C ) :   1.0282 B( 53-C , 68-C ) :   1.4600 B( 54-C , 55-C ) :   1.7239
B( 54-C , 60-C ) :   1.0032 B( 55-C , 56-C ) :   1.1151 B( 55-C , 58-C ) :   1.1314
B( 56-C , 57-N ) :   2.9824 B( 58-C , 59-N ) :   2.9980 B( 60-C , 61-C ) :   1.4525
B( 60-C , 67-C ) :   1.2877 B( 61-C , 62-C ) :   1.3309 B( 61-C , 92-H ) :   0.9827
B( 62-C , 63-Br) :   1.0491 B( 62-C , 64-C ) :   1.4726 B( 64-C , 65-Cl) :   1.0550
B( 64-C , 66-C ) :   1.3166 B( 66-C , 67-C ) :   1.4014 B( 66-C , 93-H ) :   1.0118
B( 67-C , 68-C ) :   1.0185 B( 68-C , 69-O ) :   1.1896 B( 70-C , 94-H ) :   0.9654
B( 70-C , 95-H ) :   0.9624 B( 70-C , 96-H ) :   0.9687

-----------------------------------------------------------------------------
         ABSORPTION SPECTRUM VIA TRANSITION ELECTRIC DIPOLE MOMENTS
-----------------------------------------------------------------------------
State   Energy  Wavelength   fosc         T2         TX        TY        TZ
        (cm-1)    (nm)                  (au**2)     (au)      (au)      (au)
-----------------------------------------------------------------------------
   0   19446.8    514.2   0.157958056   2.67404   0.27318   1.57211   0.35759
   1   21196.1    471.8   2.173795609  33.76272  -0.18577   5.44085   2.03109
   2   27707.6    360.9   0.070557272   0.83834  -0.07368  -0.85325  -0.32385
   3   28699.7    348.4   0.005710215   0.06550  -0.20808   0.05812   0.13721
   4   28896.6    346.1   0.086566165   0.98623   0.24963  -0.81438   0.51059
   5   29984.4    333.5   0.118231575   1.29812  -0.05952   0.46411  -1.03884
   6   30725.4    325.5   0.000414745   0.00444   0.04647   0.00583   0.04744
   7   32227.7    310.3   0.511100275   5.22098   1.82802  -1.35793  -0.18802
   8   33125.0    301.9   0.036431953   0.36208  -0.02988  -0.13789  -0.58495
   9   34444.9    290.3   0.002047852   0.01957  -0.09361  -0.10396   0.00104
  10   34589.8    289.1   0.222778527   2.12032   0.08015   1.43989  -0.20154
  11   34945.6    286.2   0.192794412   1.81626   0.08422  -1.12156  -0.74248
  12   35584.9    281.0   0.001327812   0.01228  -0.08345   0.01632   0.07109
  13   35708.5    280.0   0.181372559   1.67215   0.24956  -0.39971   1.20420
  14   36544.8    273.6   0.861906601   7.76444   0.63534  -0.86714   2.57077
  15   37751.6    264.9   0.010071564   0.08783   0.09971   0.23055   0.15727
  16   38514.9    259.6   0.098934307   0.84566  -0.67755   0.62134   0.02298
  17   39033.6    256.2   0.702109373   5.92163   0.01328  -2.04585  -1.31756
  18   39250.8    254.8   0.442663614   3.71280   0.47079  -1.80926   0.46663
  19   39492.2    253.2   0.177382348   1.47868  -1.09879   0.49127   0.17320
  20   40108.5    249.3   0.354151524   2.90689   0.06675   1.00574  -1.37511

Dispersion correction           -0.065351521
FINAL SINGLE POINT ENERGY    -10641.145376524753

DIPOLE MOMENT
-------------
                                X             Y             Z
Electronic contribution:     49.80192      23.70582     -50.66098
Nuclear contribution   :    -52.36707     -20.45964      49.61081
                        -----------------------------------------
Total Dipole Moment    :     -2.56516       3.24618      -1.05018
                        -----------------------------------------
Magnitude (a.u.)       :      4.26856
Magnitude (Debye)      :     10.84981

Rotational constants in cm-1:     0.001470     0.000181     0.000173
Rotational constants in MHz :    44.084285     5.428246     5.190280

                             ****ORCA TERMINATED NORMALLY****
TOTAL RUN TIME: 0 days 0 hours 11 minutes 20 seconds 726 msec
