                         Program Version 4.2.0 -  RELEASE  -
|  1> # ORCA input file
|  2> # SCF done       -202.870319153206          0.000482880150
|  3> ! wb97x-d3 def2-SVP def2/J RIJCOSX Grid4 TightSCF
|  4> %maxcore 5000
|  5> %tddft
|  6>     Mode sTDDFT
|  7>     Ethresh 5.0
|  8>     maxcore 5000
|  9> end
| 10>
| 11> %pal
| 12>   nprocs 6
| 13>   end
| 14> * xyz 0 1
| 15>    C        4.42140         0.99840         0.24611
| 16>    O        4.96978         0.44564         1.17835
| 17>    C        5.04214         1.34400        -1.05245
| 18>    C        6.36208         1.20580        -1.43234
| 19>    C        6.70204         1.57997        -2.72254
| 20>    F        7.97148         1.46941        -3.13164
| 21>    C        5.73377         2.06925        -3.59975
| 22>    F        6.08924         2.41583        -4.84179
| 23>    C        4.40683         2.20377        -3.21915
| 24>    C        4.06074         1.83706        -1.92804
| 25>    C        2.77838         1.86564        -1.22617
| 26>    C        1.61056         2.38265        -1.72252
| 27>    C        0.40466         2.50544        -0.99929
| 28>    N       -0.60082         2.66251        -0.46729
| 29>    C        1.46563         2.89350        -3.03003
| 30>    N        1.28481         3.31487        -4.08196
| 31>    C        2.99717         1.34362         0.10812
| 32>    C        2.00558         1.04358         1.00814
| 33>    C        2.08461         0.71810         2.37415
| 34>    S        0.73018        -0.27358         2.94557
| 35>    C        1.35929        -0.28361         4.54616
| 36>    C        2.52273         0.49709         4.62224
| 37>    C        2.94277         1.07184         3.41728
| 38>    C        4.08906         2.02271         3.38331
| 39>    C        3.73055         3.38433         2.79156
| 40>    S        3.18162         0.60158         6.23841
| 41>    C        1.89158        -0.40322         6.79995
| 42>    C        1.00752        -0.81584         5.79013
| 43>    N        0.00463        -1.57500         6.32835
| 44>    C       -1.21721        -1.80915         5.58580
| 45>    C        0.22731        -1.65069         7.69517
| 46>    C        1.39146        -0.89206         8.01089
| 47>    C        1.74910        -0.65286         9.35570
| 48>    N        2.74230         0.04141         9.91273
| 49>    N        2.48582        -0.00809        11.19530
| 50>    N        1.41289        -0.67061        11.55209
| 51>    C        0.90222        -1.10832        10.40200
| 52>    C       -0.20883        -1.92672        10.09713
| 53>    C       -0.48602        -2.28849         8.73919
| 54>    N       -1.49952        -3.21070         8.71864
| 55>    C       -1.78973        -4.17854         7.68334
| 56>    C       -1.65709        -5.61004         8.19702
| 57>    C       -1.93537        -3.40070        10.01282
| 58>    C       -1.13753        -2.59333        10.89134
| 59>    S       -1.57760        -2.70442        12.52471
| 60>    C       -2.90721        -3.95121        11.98042
| 61>    C       -2.91105        -4.16403        10.60022
| 62>    S       -3.15386        -5.49585        15.36316
| 63>    C       -3.51351        -4.23936        14.33877
| 64>    C       -3.67904        -4.54169        12.92014
| 65>    C       -4.70507        -5.56387        12.54663
| 66>    C       -6.10643        -4.98237        12.75180
| 67>    C       -3.66235        -2.92172        14.84077
| 68>    C       -1.05224        -2.86849         4.49837
| 69>    C       -4.36509        -0.60418        14.66459
| 70>    C       -4.87836         0.46453        13.97538
| 71>    C       -5.07859         1.80849        14.47830
| 72>    C       -4.76772         2.28304        15.72653
| 73>    C       -4.99201         3.61192        16.14604
| 74>    N       -5.14481         4.67611        16.54768
| 75>    C       -4.18043         1.53718        16.77091
| 76>    N       -3.70805         1.00888        17.67424
| 77>    C       -5.68008         2.59876        13.40336
| 78>    C       -6.08738         3.92347        13.35848
| 79>    C       -6.63551         4.39764        12.17580
| 80>    F       -7.03460         5.67222        12.11312
| 81>    C       -6.78010         3.58003        11.05438
| 82>    F       -7.31377         4.07974         9.93325
| 83>    C       -6.37612         2.25543        11.09149
| 84>    C       -5.83097         1.78367        12.26931
| 85>    C       -5.33483         0.42112        12.56500
| 86>    O       -5.31842        -0.51444        11.79371
| 87>    C       -4.19817        -1.89225        14.12084
| 88>    C        3.36103         0.58578        12.16399
| 89>    C        4.38577        -0.43241        12.65535
| 90>    H        7.10722         0.82310        -0.75330
| 91>    H        3.69587         2.58090        -3.93572
| 92>    H        0.99637         0.99626         0.61267
| 93>    H        4.44356         2.15467         4.40802
| 94>    H        4.90024         1.57201         2.80328
| 95>    H        2.90540         3.83191         3.34154
| 96>    H        4.58874         4.04794         2.85658
| 97>    H        3.44110         3.30031         1.74754
| 98>    H       -1.50052        -0.86469         5.10650
| 99>    H       -2.00756        -2.07607         6.28611
|100>    H       -2.80805        -4.02495         7.30911
|101>    H       -1.07303        -4.03071         6.87862
|102>    H       -2.38295        -5.79726         8.98466
|103>    H       -1.83304        -6.30321         7.37904
|104>    H       -0.65895        -5.78131         8.59418
|105>    H       -4.56944        -5.85361        11.50550
|106>    H       -4.57999        -6.43746        13.19011
|107>    H       -6.24234        -4.09978        12.13115
|108>    H       -6.85480        -5.72029        12.47606
|109>    H       -6.25969        -4.70379        13.79240
|110>    H       -3.39073        -2.76974        15.87786
|111>    H       -0.34097        -2.53404         3.74867
|112>    H       -0.69768        -3.81394         4.90079
|113>    H       -2.00859        -3.03578         4.01163
|114>    H       -4.05808        -0.46654        15.69301
|115>    H       -5.99953         4.59689        14.19493
|116>    H       -6.48748         1.61852        10.22850
|117>    H       -4.50739        -2.05533        13.09897
|118>    H        3.85813         1.42843        11.68003
|119>    H        2.74474         0.93587        12.99435
|120>    H        4.98982        -0.78866        11.82439
|121>    H        5.03835         0.02742        13.39169
|122>    H        3.88045        -1.27896        13.11369
|123> *
|124>
|125>                          ****END OF INPUT****

CARTESIAN COORDINATES (ANGSTROEM)
---------------------------------
  C      4.421400    0.998400    0.246110
  O      4.969780    0.445640    1.178350
  C      5.042140    1.344000   -1.052450
  C      6.362080    1.205800   -1.432340
  C      6.702040    1.579970   -2.722540
  F      7.971480    1.469410   -3.131640
  C      5.733770    2.069250   -3.599750
  F      6.089240    2.415830   -4.841790
  C      4.406830    2.203770   -3.219150
  C      4.060740    1.837060   -1.928040
  C      2.778380    1.865640   -1.226170
  C      1.610560    2.382650   -1.722520
  C      0.404660    2.505440   -0.999290
  N     -0.600820    2.662510   -0.467290
  C      1.465630    2.893500   -3.030030
  N      1.284810    3.314870   -4.081960
  C      2.997170    1.343620    0.108120
  C      2.005580    1.043580    1.008140
  C      2.084610    0.718100    2.374150
  S      0.730180   -0.273580    2.945570
  C      1.359290   -0.283610    4.546160
  C      2.522730    0.497090    4.622240
  C      2.942770    1.071840    3.417280
  C      4.089060    2.022710    3.383310
  C      3.730550    3.384330    2.791560
  S      3.181620    0.601580    6.238410
  C      1.891580   -0.403220    6.799950
  C      1.007520   -0.815840    5.790130
  N      0.004630   -1.575000    6.328350
  C     -1.217210   -1.809150    5.585800
  C      0.227310   -1.650690    7.695170
  C      1.391460   -0.892060    8.010890
  C      1.749100   -0.652860    9.355700
  N      2.742300    0.041410    9.912730
  N      2.485820   -0.008090   11.195300
  N      1.412890   -0.670610   11.552090
  C      0.902220   -1.108320   10.402000
  C     -0.208830   -1.926720   10.097130
  C     -0.486020   -2.288490    8.739190
  N     -1.499520   -3.210700    8.718640
  C     -1.789730   -4.178540    7.683340
  C     -1.657090   -5.610040    8.197020
  C     -1.935370   -3.400700   10.012820
  C     -1.137530   -2.593330   10.891340
  S     -1.577600   -2.704420   12.524710
  C     -2.907210   -3.951210   11.980420
  C     -2.911050   -4.164030   10.600220
  S     -3.153860   -5.495850   15.363160
  C     -3.513510   -4.239360   14.338770
  C     -3.679040   -4.541690   12.920140
  C     -4.705070   -5.563870   12.546630
  C     -6.106430   -4.982370   12.751800
  C     -3.662350   -2.921720   14.840770
  C     -1.052240   -2.868490    4.498370
  C     -4.365090   -0.604180   14.664590
  C     -4.878360    0.464530   13.975380
  C     -5.078590    1.808490   14.478300
  C     -4.767720    2.283040   15.726530
  C     -4.992010    3.611920   16.146040
  N     -5.144810    4.676110   16.547680
  C     -4.180430    1.537180   16.770910
  N     -3.708050    1.008880   17.674240
  C     -5.680080    2.598760   13.403360
  C     -6.087380    3.923470   13.358480
  C     -6.635510    4.397640   12.175800
  F     -7.034600    5.672220   12.113120
  C     -6.780100    3.580030   11.054380
  F     -7.313770    4.079740    9.933250
  C     -6.376120    2.255430   11.091490
  C     -5.830970    1.783670   12.269310
  C     -5.334830    0.421120   12.565000
  O     -5.318420   -0.514440   11.793710
  C     -4.198170   -1.892250   14.120840
  C      3.361030    0.585780   12.163990
  C      4.385770   -0.432410   12.655350
  H      7.107220    0.823100   -0.753300
  H      3.695870    2.580900   -3.935720
  H      0.996370    0.996260    0.612670
  H      4.443560    2.154670    4.408020
  H      4.900240    1.572010    2.803280
  H      2.905400    3.831910    3.341540
  H      4.588740    4.047940    2.856580
  H      3.441100    3.300310    1.747540
  H     -1.500520   -0.864690    5.106500
  H     -2.007560   -2.076070    6.286110
  H     -2.808050   -4.024950    7.309110
  H     -1.073030   -4.030710    6.878620
  H     -2.382950   -5.797260    8.984660
  H     -1.833040   -6.303210    7.379040
  H     -0.658950   -5.781310    8.594180
  H     -4.569440   -5.853610   11.505500
  H     -4.579990   -6.437460   13.190110
  H     -6.242340   -4.099780   12.131150
  H     -6.854800   -5.720290   12.476060
  H     -6.259690   -4.703790   13.792400
  H     -3.390730   -2.769740   15.877860
  H     -0.340970   -2.534040    3.748670
  H     -0.697680   -3.813940    4.900790
  H     -2.008590   -3.035780    4.011630
  H     -4.058080   -0.466540   15.693010
  H     -5.999530    4.596890   14.194930
  H     -6.487480    1.618520   10.228500
  H     -4.507390   -2.055330   13.098970
  H      3.858130    1.428430   11.680030
  H      2.744740    0.935870   12.994350
  H      4.989820   -0.788660   11.824390
  H      5.038350    0.027420   13.391690
  H      3.880450   -1.278960   13.113690

 Total Charge           Charge          ....    0
 Multiplicity           Mult            ....    1
 Number of Electrons    NEL             ....  548
 Basis Dimension        Dim             .... 1231

ORBITAL ENERGIES
----------------

  NO   OCC          E(Eh)            E(eV)
   0   2.0000     -89.002157     -2421.8718
   1   2.0000     -88.993607     -2421.6392
   2   2.0000     -88.959114     -2420.7005
   3   2.0000     -88.940304     -2420.1887
   4   2.0000     -24.843199      -676.0178
   5   2.0000     -24.842137      -675.9889
   6   2.0000     -24.836696      -675.8409
   7   2.0000     -24.834945      -675.7932
   8   2.0000     -19.272067      -524.4196
   9   2.0000     -19.261392      -524.1291
  10   2.0000     -14.561570      -396.2405
  11   2.0000     -14.524645      -395.2357
  12   2.0000     -14.506388      -394.7389
  13   2.0000     -14.476031      -393.9128
  14   2.0000     -14.472903      -393.8277
  15   2.0000     -14.465881      -393.6366
  16   2.0000     -14.464213      -393.5912
  17   2.0000     -14.455914      -393.3654
  18   2.0000     -14.454413      -393.3246
  19   2.0000     -10.430798      -283.8364
  20   2.0000     -10.430379      -283.8250
  21   2.0000     -10.422849      -283.6201
  22   2.0000     -10.422238      -283.6035
  23   2.0000     -10.421237      -283.5763
  24   2.0000     -10.410243      -283.2771
  25   2.0000     -10.396121      -282.8928
  26   2.0000     -10.395301      -282.8705
  27   2.0000     -10.385162      -282.5946
  28   2.0000     -10.384746      -282.5833
  29   2.0000     -10.383173      -282.5405
  30   2.0000     -10.378485      -282.4129
  31   2.0000     -10.371150      -282.2133
  32   2.0000     -10.368613      -282.1443
  33   2.0000     -10.366829      -282.0958
  34   2.0000     -10.366576      -282.0889
  35   2.0000     -10.365607      -282.0625
  36   2.0000     -10.365556      -282.0611
  37   2.0000     -10.364119      -282.0220
  38   2.0000     -10.363903      -282.0161
  39   2.0000     -10.363512      -282.0055
  40   2.0000     -10.358130      -281.8591
  41   2.0000     -10.356840      -281.8239
  42   2.0000     -10.355292      -281.7818
  43   2.0000     -10.354823      -281.7690
  44   2.0000     -10.354378      -281.7570
  45   2.0000     -10.353379      -281.7298
  46   2.0000     -10.353235      -281.7259
  47   2.0000     -10.351284      -281.6727
  48   2.0000     -10.350957      -281.6638
  49   2.0000     -10.350167      -281.6424
  50   2.0000     -10.349546      -281.6255
  51   2.0000     -10.349091      -281.6131
  52   2.0000     -10.348384      -281.5938
  53   2.0000     -10.347162      -281.5606
  54   2.0000     -10.345799      -281.5235
  55   2.0000     -10.345660      -281.5197
  56   2.0000     -10.345498      -281.5153
  57   2.0000     -10.343957      -281.4734
  58   2.0000     -10.341917      -281.4179
  59   2.0000     -10.340096      -281.3683
  60   2.0000     -10.337569      -281.2996
  61   2.0000     -10.335528      -281.2440
  62   2.0000     -10.334158      -281.2067
  63   2.0000     -10.333789      -281.1967
  64   2.0000     -10.333521      -281.1894
  65   2.0000     -10.324688      -280.9490
  66   2.0000     -10.320858      -280.8448
  67   2.0000     -10.315448      -280.6976
  68   2.0000     -10.310430      -280.5611
  69   2.0000     -10.299516      -280.2641
  70   2.0000     -10.299487      -280.2633
  71   2.0000     -10.297891      -280.2199
  72   2.0000     -10.291163      -280.0368
  73   2.0000     -10.286836      -279.9190
  74   2.0000     -10.270365      -279.4708
  75   2.0000      -8.115301      -220.8286
  76   2.0000      -8.106462      -220.5881
  77   2.0000      -8.072196      -219.6556
  78   2.0000      -8.054635      -219.1778
  79   2.0000      -6.075161      -165.3135
  80   2.0000      -6.070974      -165.1996
  81   2.0000      -6.066956      -165.0903
  82   2.0000      -6.066549      -165.0792
  83   2.0000      -6.062519      -164.9695
  84   2.0000      -6.057519      -164.8335
  85   2.0000      -6.031896      -164.1362
  86   2.0000      -6.028312      -164.0387
  87   2.0000      -6.023554      -163.9092
  88   2.0000      -6.014207      -163.6549
  89   2.0000      -6.013327      -163.6310
  90   2.0000      -6.003467      -163.3626
  91   2.0000      -1.373187       -37.3663
  92   2.0000      -1.366365       -37.1807
  93   2.0000      -1.358119       -36.9563
  94   2.0000      -1.351268       -36.7699
  95   2.0000      -1.248586       -33.9758
  96   2.0000      -1.188579       -32.3429
  97   2.0000      -1.178434       -32.0668
  98   2.0000      -1.152067       -31.3493
  99   2.0000      -1.131568       -30.7915
 100   2.0000      -1.074193       -29.2303
 101   2.0000      -1.065059       -28.9817
 102   2.0000      -1.058164       -28.7941
 103   2.0000      -1.054750       -28.7012
 104   2.0000      -1.045517       -28.4500
 105   2.0000      -1.045421       -28.4473
 106   2.0000      -1.036341       -28.2003
 107   2.0000      -1.023538       -27.8519
 108   2.0000      -1.018619       -27.7180
 109   2.0000      -1.015643       -27.6371
 110   2.0000      -1.009551       -27.4713
 111   2.0000      -1.004731       -27.3401
 112   2.0000      -0.994482       -27.0612
 113   2.0000      -0.985025       -26.8039
 114   2.0000      -0.969114       -26.3709
 115   2.0000      -0.964694       -26.2507
 116   2.0000      -0.951923       -25.9032
 117   2.0000      -0.948076       -25.7984
 118   2.0000      -0.941686       -25.6246
 119   2.0000      -0.939493       -25.5649
 120   2.0000      -0.924885       -25.1674
 121   2.0000      -0.924086       -25.1457
 122   2.0000      -0.917494       -24.9663
 123   2.0000      -0.916062       -24.9273
 124   2.0000      -0.908526       -24.7223
 125   2.0000      -0.888969       -24.1901
 126   2.0000      -0.885129       -24.0856
 127   2.0000      -0.881500       -23.9868
 128   2.0000      -0.869323       -23.6555
 129   2.0000      -0.864204       -23.5162
 130   2.0000      -0.854800       -23.2603
 131   2.0000      -0.841017       -22.8852
 132   2.0000      -0.840134       -22.8612
 133   2.0000      -0.837567       -22.7913
 134   2.0000      -0.827613       -22.5205
 135   2.0000      -0.824515       -22.4362
 136   2.0000      -0.815477       -22.1903
 137   2.0000      -0.804178       -21.8828
 138   2.0000      -0.794885       -21.6299
 139   2.0000      -0.786695       -21.4071
 140   2.0000      -0.785524       -21.3752
 141   2.0000      -0.769982       -20.9523
 142   2.0000      -0.766273       -20.8514
 143   2.0000      -0.757158       -20.6033
 144   2.0000      -0.753368       -20.5002
 145   2.0000      -0.748418       -20.3655
 146   2.0000      -0.748341       -20.3634
 147   2.0000      -0.743383       -20.2285
 148   2.0000      -0.740850       -20.1596
 149   2.0000      -0.734066       -19.9749
 150   2.0000      -0.729153       -19.8413
 151   2.0000      -0.721413       -19.6307
 152   2.0000      -0.716950       -19.5092
 153   2.0000      -0.707270       -19.2458
 154   2.0000      -0.704313       -19.1653
 155   2.0000      -0.698684       -19.0122
 156   2.0000      -0.689563       -18.7640
 157   2.0000      -0.684851       -18.6357
 158   2.0000      -0.682731       -18.5781
 159   2.0000      -0.681786       -18.5523
 160   2.0000      -0.676492       -18.4083
 161   2.0000      -0.672596       -18.3023
 162   2.0000      -0.669413       -18.2157
 163   2.0000      -0.654032       -17.7971
 164   2.0000      -0.652275       -17.7493
 165   2.0000      -0.648777       -17.6541
 166   2.0000      -0.644301       -17.5323
 167   2.0000      -0.638949       -17.3867
 168   2.0000      -0.633879       -17.2487
 169   2.0000      -0.633740       -17.2449
 170   2.0000      -0.630726       -17.1629
 171   2.0000      -0.627779       -17.0827
 172   2.0000      -0.626681       -17.0529
 173   2.0000      -0.619756       -16.8644
 174   2.0000      -0.619011       -16.8442
 175   2.0000      -0.612725       -16.6731
 176   2.0000      -0.605447       -16.4750
 177   2.0000      -0.603796       -16.4301
 178   2.0000      -0.599024       -16.3003
 179   2.0000      -0.596954       -16.2439
 180   2.0000      -0.593848       -16.1594
 181   2.0000      -0.592179       -16.1140
 182   2.0000      -0.589901       -16.0520
 183   2.0000      -0.588602       -16.0167
 184   2.0000      -0.587939       -15.9986
 185   2.0000      -0.585639       -15.9361
 186   2.0000      -0.584259       -15.8985
 187   2.0000      -0.580645       -15.8002
 188   2.0000      -0.578989       -15.7551
 189   2.0000      -0.576670       -15.6920
 190   2.0000      -0.573318       -15.6008
 191   2.0000      -0.571276       -15.5452
 192   2.0000      -0.567958       -15.4549
 193   2.0000      -0.567030       -15.4297
 194   2.0000      -0.564890       -15.3714
 195   2.0000      -0.564480       -15.3603
 196   2.0000      -0.559984       -15.2380
 197   2.0000      -0.558926       -15.2091
 198   2.0000      -0.554717       -15.0946
 199   2.0000      -0.553295       -15.0559
 200   2.0000      -0.547002       -14.8847
 201   2.0000      -0.546256       -14.8644
 202   2.0000      -0.544101       -14.8057
 203   2.0000      -0.540366       -14.7041
 204   2.0000      -0.538305       -14.6480
 205   2.0000      -0.534420       -14.5423
 206   2.0000      -0.532696       -14.4954
 207   2.0000      -0.532039       -14.4775
 208   2.0000      -0.530866       -14.4456
 209   2.0000      -0.526877       -14.3370
 210   2.0000      -0.521388       -14.1877
 211   2.0000      -0.520507       -14.1637
 212   2.0000      -0.517184       -14.0733
 213   2.0000      -0.516335       -14.0502
 214   2.0000      -0.509581       -13.8664
 215   2.0000      -0.506512       -13.7829
 216   2.0000      -0.505382       -13.7521
 217   2.0000      -0.504627       -13.7316
 218   2.0000      -0.503303       -13.6956
 219   2.0000      -0.500149       -13.6097
 220   2.0000      -0.497896       -13.5484
 221   2.0000      -0.496370       -13.5069
 222   2.0000      -0.495252       -13.4765
 223   2.0000      -0.494082       -13.4447
 224   2.0000      -0.493635       -13.4325
 225   2.0000      -0.490872       -13.3573
 226   2.0000      -0.490366       -13.3435
 227   2.0000      -0.488187       -13.2842
 228   2.0000      -0.487713       -13.2714
 229   2.0000      -0.487472       -13.2648
 230   2.0000      -0.482348       -13.1254
 231   2.0000      -0.482228       -13.1221
 232   2.0000      -0.477946       -13.0056
 233   2.0000      -0.476854       -12.9759
 234   2.0000      -0.474882       -12.9222
 235   2.0000      -0.474130       -12.9017
 236   2.0000      -0.473580       -12.8868
 237   2.0000      -0.470824       -12.8118
 238   2.0000      -0.468394       -12.7456
 239   2.0000      -0.466410       -12.6917
 240   2.0000      -0.463915       -12.6238
 241   2.0000      -0.461138       -12.5482
 242   2.0000      -0.458965       -12.4891
 243   2.0000      -0.458216       -12.4687
 244   2.0000      -0.456224       -12.4145
 245   2.0000      -0.455680       -12.3997
 246   2.0000      -0.453043       -12.3279
 247   2.0000      -0.447671       -12.1817
 248   2.0000      -0.446891       -12.1605
 249   2.0000      -0.443936       -12.0801
 250   2.0000      -0.439023       -11.9464
 251   2.0000      -0.433668       -11.8007
 252   2.0000      -0.427777       -11.6404
 253   2.0000      -0.422106       -11.4861
 254   2.0000      -0.417969       -11.3735
 255   2.0000      -0.411880       -11.2078
 256   2.0000      -0.404701       -11.0125
 257   2.0000      -0.399374       -10.8675
 258   2.0000      -0.392811       -10.6889
 259   2.0000      -0.388363       -10.5679
 260   2.0000      -0.386473       -10.5165
 261   2.0000      -0.380170       -10.3449
 262   2.0000      -0.374659       -10.1950
 263   2.0000      -0.372197       -10.1280
 264   2.0000      -0.360520        -9.8103
 265   2.0000      -0.353336        -9.6148
 266   2.0000      -0.348505        -9.4833
 267   2.0000      -0.337617        -9.1870
 268   2.0000      -0.335604        -9.1323
 269   2.0000      -0.325514        -8.8577
 270   2.0000      -0.318567        -8.6686
 271   2.0000      -0.294774        -8.0212
 272   2.0000      -0.286923        -7.8076
 273   2.0000      -0.281167        -7.6509
 274   0.0000      -0.102244        -2.7822
 275   0.0000      -0.078622        -2.1394
 276   0.0000      -0.057811        -1.5731
 277   0.0000      -0.051470        -1.4006
 278   0.0000      -0.040525        -1.1027

MULLIKEN ATOMIC CHARGES
-----------------------
   0 C :    0.210831
   1 O :   -0.180159
   2 C :   -0.063784
   3 C :   -0.092159
   4 C :    0.242591
   5 F :   -0.182975
   6 C :    0.242861
   7 F :   -0.178743
   8 C :   -0.084559
   9 C :    0.028452
  10 C :    0.274384
  11 C :   -0.370862
  12 C :   -0.147279
  13 N :    0.120666
  14 C :   -0.130764
  15 N :    0.114453
  16 C :   -0.153743
  17 C :    0.031814
  18 C :   -0.168251
  19 S :    0.153697
  20 C :   -0.032257
  21 C :   -0.144010
  22 C :    0.005538
  23 C :    0.010504
  24 C :   -0.047595
  25 S :    0.200803
  26 C :   -0.067673
  27 C :    0.055498
  28 N :   -0.248492
  29 C :    0.037377
  30 C :    0.088058
  31 C :   -0.107210
  32 C :   -0.021249
  33 N :   -0.061357
  34 N :   -0.125018
  35 N :   -0.058700
  36 C :   -0.001624
  37 C :   -0.132391
  38 C :    0.109387
  39 N :   -0.248189
  40 C :    0.059090
  41 C :   -0.031916
  42 C :    0.108027
  43 C :   -0.022967
  44 S :    0.068811
  45 C :   -0.046657
  46 C :   -0.260260
  47 S :   -0.047969
  48 C :   -0.154822
  49 C :   -0.091968
  50 C :    0.072231
  51 C :   -0.063637
  52 C :    0.076829
  53 C :   -0.038026
  54 C :   -0.008600
  55 C :   -0.102162
  56 C :    0.285488
  57 C :   -0.362028
  58 C :   -0.128288
  59 N :    0.118991
  60 C :   -0.130562
  61 N :    0.116812
  62 C :    0.030927
  63 C :   -0.089563
  64 C :    0.249351
  65 F :   -0.175841
  66 C :    0.245083
  67 F :   -0.180377
  68 C :   -0.089141
  69 C :   -0.056375
  70 C :    0.213615
  71 O :   -0.159271
  72 C :    0.023463
  73 C :    0.111674
  74 C :   -0.062923
  75 H :    0.041821
  76 H :    0.046147
  77 H :    0.054822
  78 H :    0.025386
  79 H :    0.086416
  80 H :    0.045539
  81 H :    0.045300
  82 H :    0.040222
  83 H :    0.058940
  84 H :    0.065921
  85 H :    0.057691
  86 H :    0.032530
  87 H :    0.068115
  88 H :    0.034324
  89 H :    0.036438
  90 H :    0.057193
  91 H :    0.046401
  92 H :    0.049646
  93 H :    0.046922
  94 H :    0.031769
  95 H :    0.039449
  96 H :    0.041205
  97 H :    0.052137
  98 H :    0.055215
  99 H :    0.040395
 100 H :    0.048699
 101 H :    0.046250
 102 H :    0.081904
 103 H :    0.057615
 104 H :    0.058880
 105 H :    0.049349
 106 H :    0.047907
 107 H :    0.054546
Sum of atomic charges:   -0.0000000

LOEWDIN ATOMIC CHARGES
----------------------
   0 C :    0.090157
   1 O :   -0.140873
   2 C :   -0.049364
   3 C :   -0.007417
   4 C :    0.075195
   5 F :   -0.048764
   6 C :    0.077208
   7 F :   -0.046746
   8 C :   -0.017456
   9 C :   -0.020524
  10 C :    0.077696
  11 C :   -0.144341
  12 C :   -0.020379
  13 N :   -0.050291
  14 C :   -0.015157
  15 N :   -0.050046
  16 C :   -0.119846
  17 C :    0.056264
  18 C :   -0.181320
  19 S :    0.430946
  20 C :   -0.190909
  21 C :   -0.191426
  22 C :    0.000365
  23 C :   -0.039658
  24 C :   -0.051051
  25 S :    0.424431
  26 C :   -0.176693
  27 C :   -0.033798
  28 N :    0.033795
  29 C :    0.038510
  30 C :    0.001047
  31 C :   -0.058127
  32 C :   -0.068217
  33 N :   -0.089525
  34 N :    0.138722
  35 N :   -0.087936
  36 C :   -0.054991
  37 C :   -0.098085
  38 C :    0.047158
  39 N :    0.034537
  40 C :    0.040474
  41 C :   -0.061791
  42 C :   -0.081285
  43 C :   -0.125593
  44 S :    0.310757
  45 C :   -0.135873
  46 C :   -0.208985
  47 S :    0.105666
  48 C :   -0.134644
  49 C :    0.017337
  50 C :   -0.019866
  51 C :   -0.052039
  52 C :   -0.006562
  53 C :   -0.063753
  54 C :    0.075271
  55 C :   -0.078355
  56 C :    0.073617
  57 C :   -0.128658
  58 C :   -0.013824
  59 N :   -0.040890
  60 C :   -0.016204
  61 N :   -0.038857
  62 C :   -0.018712
  63 C :   -0.017125
  64 C :    0.081528
  65 F :   -0.043821
  66 C :    0.078327
  67 F :   -0.046340
  68 C :   -0.002842
  69 C :   -0.050634
  70 C :    0.095853
  71 O :   -0.129197
  72 C :    0.006185
  73 C :    0.034213
  74 C :   -0.060599
  75 H :    0.055498
  76 H :    0.054210
  77 H :    0.045982
  78 H :    0.025595
  79 H :    0.044350
  80 H :    0.030705
  81 H :    0.032346
  82 H :    0.023308
  83 H :    0.033638
  84 H :    0.035570
  85 H :    0.030916
  86 H :    0.023210
  87 H :    0.033062
  88 H :    0.029084
  89 H :    0.029148
  90 H :    0.038015
  91 H :    0.030943
  92 H :    0.030509
  93 H :    0.032577
  94 H :    0.021944
  95 H :    0.043200
  96 H :    0.017017
  97 H :    0.028825
  98 H :    0.039295
  99 H :    0.046434
 100 H :    0.054841
 101 H :    0.057419
 102 H :    0.038154
 103 H :    0.038218
 104 H :    0.038847
 105 H :    0.032729
 106 H :    0.034159
 107 H :    0.034383

  Mayer bond orders larger than 0.100000
B(  0-C ,  1-O ) :   2.1557 B(  0-C ,  2-C ) :   0.9427 B(  0-C , 16-C ) :   0.9801
B(  2-C ,  3-C ) :   1.3476 B(  2-C ,  9-C ) :   1.3439 B(  3-C ,  4-C ) :   1.3296
B(  3-C , 75-H ) :   1.0133 B(  4-C ,  5-F ) :   1.1015 B(  4-C ,  6-C ) :   1.2931
B(  6-C ,  7-F ) :   1.1152 B(  6-C ,  8-C ) :   1.3518 B(  8-C ,  9-C ) :   1.3326
B(  8-C , 76-H ) :   0.9875 B(  9-C , 10-C ) :   1.0188 B( 10-C , 11-C ) :   1.6530
B( 10-C , 16-C ) :   1.0859 B( 11-C , 12-C ) :   1.1334 B( 11-C , 14-C ) :   1.1266
B( 12-C , 13-N ) :   2.9854 B( 14-C , 15-N ) :   2.9777 B( 16-C , 17-C ) :   1.5901
B( 17-C , 18-C ) :   1.2274 B( 17-C , 77-H ) :   0.9215 B( 18-C , 19-S ) :   1.0553
B( 18-C , 22-C ) :   1.4484 B( 19-S , 20-C ) :   1.0736 B( 20-C , 21-C ) :   1.4431
B( 20-C , 27-C ) :   1.3014 B( 21-C , 22-C ) :   1.3836 B( 21-C , 25-S ) :   1.0411
B( 22-C , 23-C ) :   1.0559 B( 23-C , 24-C ) :   1.0904 B( 23-C , 78-H ) :   0.9287
B( 23-C , 79-H ) :   0.8897 B( 24-C , 80-H ) :   0.9714 B( 24-C , 81-H ) :   0.9701
B( 24-C , 82-H ) :   0.9715 B( 25-S , 26-C ) :   1.0193 B( 26-C , 27-C ) :   1.4081
B( 26-C , 31-C ) :   1.3899 B( 27-C , 28-N ) :   1.1604 B( 28-N , 29-C ) :   0.9173
B( 28-N , 30-C ) :   1.1483 B( 29-C , 53-C ) :   1.0872 B( 29-C , 83-H ) :   0.9535
B( 29-C , 84-H ) :   0.9520 B( 30-C , 31-C ) :   1.3931 B( 30-C , 38-C ) :   1.1488
B( 31-C , 32-C ) :   1.1138 B( 32-C , 33-N ) :   1.5529 B( 32-C , 36-C ) :   1.2462
B( 33-N , 34-N ) :   1.2205 B( 33-N , 35-N ) :   0.1422 B( 34-N , 35-N ) :   1.2048
B( 34-N , 73-C ) :   0.9161 B( 35-N , 36-C ) :   1.5644 B( 36-C , 37-C ) :   1.1053
B( 37-C , 38-C ) :   1.3395 B( 37-C , 43-C ) :   1.4185 B( 38-C , 39-N ) :   1.2383
B( 39-N , 40-C ) :   0.9173 B( 39-N , 42-C ) :   1.0533 B( 40-C , 41-C ) :   1.1044
B( 40-C , 85-H ) :   0.9444 B( 40-C , 86-H ) :   0.9481 B( 41-C , 87-H ) :   0.9488
B( 41-C , 88-H ) :   0.9642 B( 41-C , 89-H ) :   0.9656 B( 42-C , 43-C ) :   1.1806
B( 42-C , 46-C ) :   1.3368 B( 43-C , 44-S ) :   1.1327 B( 44-S , 45-C ) :   0.8270
B( 44-S , 46-C ) :   0.1730 B( 45-C , 46-C ) :   1.1791 B( 45-C , 49-C ) :   1.7408
B( 47-S , 48-C ) :   1.7443 B( 47-S , 72-C ) :   0.1089 B( 48-C , 49-C ) :   0.9579
B( 48-C , 52-C ) :   1.1055 B( 49-C , 50-C ) :   1.0648 B( 50-C , 51-C ) :   1.0696
B( 50-C , 90-H ) :   0.9191 B( 50-C , 91-H ) :   0.9229 B( 51-C , 92-H ) :   0.9672
B( 51-C , 93-H ) :   0.9711 B( 51-C , 94-H ) :   0.9743 B( 52-C , 72-C ) :   1.5954
B( 52-C , 95-H ) :   0.9821 B( 53-C , 96-H ) :   0.9585 B( 53-C , 97-H ) :   0.9639
B( 53-C , 98-H ) :   0.9669 B( 54-C , 55-C ) :   1.6257 B( 54-C , 72-C ) :   1.1399
B( 54-C , 99-H ) :   0.9580 B( 55-C , 56-C ) :   1.0634 B( 55-C , 70-C ) :   0.9373
B( 56-C , 57-C ) :   1.6626 B( 56-C , 62-C ) :   1.0244 B( 57-C , 58-C ) :   1.1271
B( 57-C , 60-C ) :   1.1339 B( 58-C , 59-N ) :   2.9731 B( 60-C , 61-N ) :   2.9592
B( 62-C , 63-C ) :   1.3266 B( 62-C , 69-C ) :   1.3405 B( 63-C , 64-C ) :   1.3570
B( 63-C ,100-H ) :   0.9876 B( 64-C , 65-F ) :   1.1188 B( 64-C , 66-C ) :   1.2848
B( 66-C , 67-F ) :   1.1038 B( 66-C , 68-C ) :   1.3343 B( 68-C , 69-C ) :   1.3412
B( 68-C ,101-H ) :   1.0142 B( 69-C , 70-C ) :   0.9606 B( 70-C , 71-O ) :   2.1945
B( 72-C ,102-H ) :   0.9517 B( 73-C , 74-C ) :   1.0994 B( 73-C ,103-H ) :   0.9503
B( 73-C ,104-H ) :   0.9506 B( 74-C ,105-H ) :   0.9703 B( 74-C ,106-H ) :   0.9729
B( 74-C ,107-H ) :   0.9707

-----------------------------------------------------------------------------
         ABSORPTION SPECTRUM VIA TRANSITION ELECTRIC DIPOLE MOMENTS
-----------------------------------------------------------------------------
State   Energy  Wavelength   fosc         T2         TX        TY        TZ
        (cm-1)    (nm)                  (au**2)     (au)      (au)      (au)
-----------------------------------------------------------------------------
   0   12415.4    805.4   0.005025632   0.13326  -0.18834   0.31115  -0.03122
   1   17625.4    567.4   0.041400056   0.77328   0.34014   0.17393  -0.79205
   2   18250.1    547.9   0.002363649   0.04264  -0.08752  -0.13263   0.13186
   3   20051.2    498.7   0.085084930   1.39697  -0.35689  -0.94177   0.61860
   4   20490.7    488.0   1.978593924  31.78885  -2.23738  -1.39034   4.98497
   5   23096.6    433.0   0.270191523   3.85123  -0.31513  -0.43483   1.88755
   6   23897.1    418.5   0.219960060   3.03022   0.16416  -0.30280   1.70634
   7   26383.1    379.0   1.009593425  12.59783   1.35265  -3.27377   0.22490
   8   28622.2    349.4   0.010283873   0.11828   0.03678   0.22536  -0.25718
   9   28669.0    348.8   0.006004597   0.06895  -0.00585  -0.11942   0.23379
  10   29409.0    340.0   0.230061896   2.57537  -1.14545  -1.05813   0.37906
  11   30182.3    331.3   0.472738674   5.15637   1.50910   1.64638  -0.41040
  12   32226.9    310.3   0.040550308   0.41424  -0.15155   0.54600  -0.30521
  13   32324.2    309.4   0.247346036   2.51914  -0.43884   0.90286  -1.22939
  14   32933.0    303.6   0.067253501   0.67229   0.42373   0.30408   0.63268
  15   33215.5    301.1   0.030589413   0.30318   0.05917  -0.40878   0.36412
  16   33815.3    295.7   0.083252139   0.81051   0.86021  -0.19934  -0.17554
  17   34069.7    293.5   0.078897779   0.76238   0.84689  -0.07090   0.20031
  18   34464.7    290.2   0.020980634   0.20041  -0.32642   0.26819  -0.14811
  19   34627.1    288.8   0.029314892   0.27871  -0.28783  -0.43167  -0.09760
  20   35097.6    284.9   0.032685915   0.30659  -0.20635   0.08215   0.50721
  21   35248.6    283.7   0.133713211   1.24884  -0.46445   0.89674  -0.47853
  22   35778.9    279.5   0.030557096   0.28116  -0.23845   0.47306  -0.02270
  23   36083.2    277.1   0.100939090   0.92094  -0.11392  -0.65204   0.69484
  24   36435.0    274.5   0.052360144   0.47311  -0.24327   0.13874   0.62823
  25   36551.9    273.6   0.018826686   0.16957   0.06884  -0.37664  -0.15157
  26   36673.6    272.7   0.128456314   1.15313  -0.89879   0.28019   0.51653
  27   36781.0    271.9   0.032783650   0.29343   0.38116  -0.01230  -0.38470
  28   37020.1    270.1   0.105807164   0.94092   0.20720  -0.09669   0.94268
  29   37508.2    266.6   0.608911016   5.34445  -1.32583   0.98328  -1.61858
  30   38257.9    261.4   0.126570436   1.08915  -0.42980   0.38561  -0.86932
  31   38689.1    258.5   0.173722904   1.47824   0.97062  -0.50430  -0.53085
  32   38773.1    257.9   0.288233095   2.44731  -1.42359   0.63537   0.13035
  33   40058.4    249.6   0.089965431   0.73936   0.49249  -0.08377   0.69986
  34   40227.8    248.6   0.156274805   1.27891  -0.14244   0.04297  -1.12106

Dispersion correction           -0.067720823
FINAL SINGLE POINT ENERGY     -4785.194435616610

DIPOLE MOMENT
-------------
                                X             Y             Z
Electronic contribution:      2.57835      53.09768     -33.31178
Nuclear contribution   :     -2.04948     -54.28065      33.27170
                        -----------------------------------------
Total Dipole Moment    :      0.52887      -1.18297      -0.04008
                        -----------------------------------------
Magnitude (a.u.)       :      1.29643
Magnitude (Debye)      :      3.29525

Rotational constants in cm-1:     0.001309     0.000289     0.000270
Rotational constants in MHz :    39.233503     8.670725     8.102891

                             ****ORCA TERMINATED NORMALLY****
TOTAL RUN TIME: 0 days 0 hours 12 minutes 21 seconds 686 msec
