                         Program Version 4.2.0 -  RELEASE  -
|  1> # ORCA input file
|  2> # SCF done       -190.530432267520          0.000612792277
|  3> ! wb97x-d3 def2-SVP def2/J RIJCOSX Grid4 TightSCF
|  4> %maxcore 5000
|  5> %tddft
|  6>     Mode sTDDFT
|  7>     Ethresh 5.0
|  8>     maxcore 5000
|  9> end
| 10>
| 11> %pal
| 12>   nprocs 6
| 13>   end
| 14> * xyz 0 1
| 15>    C        0.19222         0.59702         0.44250
| 16>    O        0.24624         1.79186         0.20626
| 17>    C       -0.10719        -0.01636         1.75171
| 18>    C       -0.38628         0.60475         2.95101
| 19>    C       -0.64410        -0.19230         4.05966
| 20>   Cl       -0.99691         0.54067         5.57211
| 21>    C       -0.61746        -1.58596         3.94626
| 22>   Cl       -0.93927        -2.56041         5.32364
| 23>    C       -0.33454        -2.20688         2.73363
| 24>    C       -0.07715        -1.41593         1.62668
| 25>    C        0.24609        -1.75794         0.24112
| 26>    C        0.38003        -3.03483        -0.24257
| 27>    C        0.70899        -3.38704        -1.56800
| 28>    N        0.97570        -3.75898        -2.62235
| 29>    C        0.20927        -4.19782         0.53804
| 30>    N        0.08462        -5.18515         1.11013
| 31>    C        0.39928        -0.51422        -0.48575
| 32>    C        0.67746        -0.41051        -1.82995
| 33>    C        0.84853         0.70712        -2.64813
| 34>    S        0.73631         2.38383        -2.10745
| 35>    C        1.08108         2.93463        -3.70253
| 36>    C        1.26439         1.86658        -4.60071
| 37>    C        1.13667         0.61225        -4.02363
| 38>    C        1.35045        -0.65438        -4.78503
| 39>    S        1.60481         2.37960        -6.24383
| 40>    C        1.49760         4.02267        -5.71670
| 41>    C        1.22823         4.16376        -4.34966
| 42>    N        1.14676         5.49044        -4.02655
| 43>    C        1.37754         6.22930        -5.17088
| 44>    C        1.57059         5.31285        -6.25155
| 45>    C        1.71646         5.73851        -7.59049
| 46>    N        1.86922         5.00239        -8.67983
| 47>    S        1.92518         5.99027        -9.96116
| 48>    N        1.75863         7.39480        -9.17336
| 49>    C        1.65387         7.13848        -7.87909
| 50>    C        1.54408         8.04976        -6.80540
| 51>    C        1.45731         7.62438        -5.44251
| 52>    N        1.49242         8.75202        -4.64592
| 53>    C        1.56623         9.84920        -5.45876
| 54>    C        1.58980         9.44757        -6.80004
| 55>    S        1.71774        10.75828        -7.92070
| 56>    C        1.76643        11.86937        -6.56313
| 57>    C        1.67779        11.23356        -5.31066
| 58>    S        1.74933        12.35844        -4.00847
| 59>    C        1.90105        13.69312        -5.15387
| 60>    C        1.89314        13.24825        -6.49044
| 61>    C        1.95331        14.12110        -7.70053
| 62>    C        2.02759        15.03793        -4.80294
| 63>    C        2.05912        15.65338        -3.57197
| 64>    C        2.21027        17.07762        -3.35465
| 65>    C        2.35120        18.06076        -4.30131
| 66>    C        2.49425        19.43210        -4.00119
| 67>    N        2.61288        20.56080        -3.82908
| 68>    C        2.37684        17.86657        -5.69785
| 69>    N        2.40725        17.79458        -6.84439
| 70>    C        2.19372        17.30196        -1.90864
| 71>    C        2.30075        18.45893        -1.15549
| 72>    C        2.25441        18.35915         0.23159
| 73>   Cl        2.38665        19.78982         1.17250
| 74>    C        2.10348        17.12192         0.86584
| 75>   Cl        2.05162        17.03538         2.58035
| 76>    C        1.99505        15.95875         0.11350
| 77>    C        2.04108        16.06406        -1.26082
| 78>    C        1.95079        14.99200        -2.27192
| 79>    O        1.81476        13.80195        -2.04482
| 80>    C        0.69239         5.85600        -2.70420
| 81>    C        1.60596         8.94147        -3.21805
| 82>    C        0.29060         9.41453        -2.59933
| 83>    C        1.80471         5.73936        -1.66193
| 84>    C        2.78882        -1.15234        -4.61578
| 85>    C        0.56435        14.66561        -8.04643
| 86>    H       -0.40369         1.68064         3.02372
| 87>    H       -0.32400        -3.28328         2.68708
| 88>    H        0.78432        -1.34679        -2.36014
| 89>    H        0.65800        -1.43182        -4.45949
| 90>    H        1.16605        -0.45198        -5.84190
| 91>    H        2.64162        14.95420        -7.55169
| 92>    H        2.31824        13.52063        -8.53609
| 93>    H        2.11697        15.69420        -5.65748
| 94>    H        2.41868        19.43044        -1.60614
| 95>    H        1.87843        14.99791         0.58916
| 96>    H        0.26478         6.85400        -2.73257
| 97>    H       -0.10727         5.15887        -2.43195
| 98>    H        1.96574         8.02650        -2.75755
| 99>    H        2.36132         9.71718        -3.05350
|100>    H        0.37973         9.42974        -1.51702
|101>    H        0.06094        10.42175        -2.93561
|102>    H       -0.53969         8.76822        -2.87756
|103>    H        2.05778         4.69543        -1.50012
|104>    H        2.70703         6.25988        -1.97685
|105>    H        1.46649         6.15674        -0.71800
|106>    H        3.00397        -1.36182        -3.57069
|107>    H        2.92984        -2.06646        -5.18485
|108>    H        3.49255        -0.40442        -4.97349
|109>    H        0.16834        15.26055        -7.22685
|110>    H        0.62644        15.29500        -8.92929
|111>    H       -0.12349        13.84754        -8.24687
|112> *
|113>
|114>                          ****END OF INPUT****

CARTESIAN COORDINATES (ANGSTROEM)
---------------------------------
  C      0.192220    0.597020    0.442500
  O      0.246240    1.791860    0.206260
  C     -0.107190   -0.016360    1.751710
  C     -0.386280    0.604750    2.951010
  C     -0.644100   -0.192300    4.059660
  Cl    -0.996910    0.540670    5.572110
  C     -0.617460   -1.585960    3.946260
  Cl    -0.939270   -2.560410    5.323640
  C     -0.334540   -2.206880    2.733630
  C     -0.077150   -1.415930    1.626680
  C      0.246090   -1.757940    0.241120
  C      0.380030   -3.034830   -0.242570
  C      0.708990   -3.387040   -1.568000
  N      0.975700   -3.758980   -2.622350
  C      0.209270   -4.197820    0.538040
  N      0.084620   -5.185150    1.110130
  C      0.399280   -0.514220   -0.485750
  C      0.677460   -0.410510   -1.829950
  C      0.848530    0.707120   -2.648130
  S      0.736310    2.383830   -2.107450
  C      1.081080    2.934630   -3.702530
  C      1.264390    1.866580   -4.600710
  C      1.136670    0.612250   -4.023630
  C      1.350450   -0.654380   -4.785030
  S      1.604810    2.379600   -6.243830
  C      1.497600    4.022670   -5.716700
  C      1.228230    4.163760   -4.349660
  N      1.146760    5.490440   -4.026550
  C      1.377540    6.229300   -5.170880
  C      1.570590    5.312850   -6.251550
  C      1.716460    5.738510   -7.590490
  N      1.869220    5.002390   -8.679830
  S      1.925180    5.990270   -9.961160
  N      1.758630    7.394800   -9.173360
  C      1.653870    7.138480   -7.879090
  C      1.544080    8.049760   -6.805400
  C      1.457310    7.624380   -5.442510
  N      1.492420    8.752020   -4.645920
  C      1.566230    9.849200   -5.458760
  C      1.589800    9.447570   -6.800040
  S      1.717740   10.758280   -7.920700
  C      1.766430   11.869370   -6.563130
  C      1.677790   11.233560   -5.310660
  S      1.749330   12.358440   -4.008470
  C      1.901050   13.693120   -5.153870
  C      1.893140   13.248250   -6.490440
  C      1.953310   14.121100   -7.700530
  C      2.027590   15.037930   -4.802940
  C      2.059120   15.653380   -3.571970
  C      2.210270   17.077620   -3.354650
  C      2.351200   18.060760   -4.301310
  C      2.494250   19.432100   -4.001190
  N      2.612880   20.560800   -3.829080
  C      2.376840   17.866570   -5.697850
  N      2.407250   17.794580   -6.844390
  C      2.193720   17.301960   -1.908640
  C      2.300750   18.458930   -1.155490
  C      2.254410   18.359150    0.231590
  Cl     2.386650   19.789820    1.172500
  C      2.103480   17.121920    0.865840
  Cl     2.051620   17.035380    2.580350
  C      1.995050   15.958750    0.113500
  C      2.041080   16.064060   -1.260820
  C      1.950790   14.992000   -2.271920
  O      1.814760   13.801950   -2.044820
  C      0.692390    5.856000   -2.704200
  C      1.605960    8.941470   -3.218050
  C      0.290600    9.414530   -2.599330
  C      1.804710    5.739360   -1.661930
  C      2.788820   -1.152340   -4.615780
  C      0.564350   14.665610   -8.046430
  H     -0.403690    1.680640    3.023720
  H     -0.324000   -3.283280    2.687080
  H      0.784320   -1.346790   -2.360140
  H      0.658000   -1.431820   -4.459490
  H      1.166050   -0.451980   -5.841900
  H      2.641620   14.954200   -7.551690
  H      2.318240   13.520630   -8.536090
  H      2.116970   15.694200   -5.657480
  H      2.418680   19.430440   -1.606140
  H      1.878430   14.997910    0.589160
  H      0.264780    6.854000   -2.732570
  H     -0.107270    5.158870   -2.431950
  H      1.965740    8.026500   -2.757550
  H      2.361320    9.717180   -3.053500
  H      0.379730    9.429740   -1.517020
  H      0.060940   10.421750   -2.935610
  H     -0.539690    8.768220   -2.877560
  H      2.057780    4.695430   -1.500120
  H      2.707030    6.259880   -1.976850
  H      1.466490    6.156740   -0.718000
  H      3.003970   -1.361820   -3.570690
  H      2.929840   -2.066460   -5.184850
  H      3.492550   -0.404420   -4.973490
  H      0.168340   15.260550   -7.226850
  H      0.626440   15.295000   -8.929290
  H     -0.123490   13.847540   -8.246870

 Total Charge           Charge          ....    0
 Multiplicity           Mult            ....    1
 Number of Electrons    NEL             ....  558
 Basis Dimension        Dim             .... 1160

ORBITAL ENERGIES
----------------

  NO   OCC          E(Eh)            E(eV)
   0   2.0000    -101.628675     -2765.4568
   1   2.0000    -101.628565     -2765.4538
   2   2.0000    -101.626238     -2765.3905
   3   2.0000    -101.626084     -2765.3863
   4   2.0000     -89.033347     -2422.7205
   5   2.0000     -88.997615     -2421.7482
   6   2.0000     -88.997244     -2421.7381
   7   2.0000     -88.993150     -2421.6267
   8   2.0000     -88.992911     -2421.6202
   9   2.0000     -19.264175      -524.2048
  10   2.0000     -19.264129      -524.2036
  11   2.0000     -14.530515      -395.3954
  12   2.0000     -14.530399      -395.3923
  13   2.0000     -14.472078      -393.8053
  14   2.0000     -14.472022      -393.8037
  15   2.0000     -14.459033      -393.4503
  16   2.0000     -14.458987      -393.4490
  17   2.0000     -14.451820      -393.2540
  18   2.0000     -14.451805      -393.2536
  19   2.0000     -10.411390      -283.3083
  20   2.0000     -10.411351      -283.3073
  21   2.0000     -10.394600      -282.8514
  22   2.0000     -10.394553      -282.8502
  23   2.0000     -10.393995      -282.8350
  24   2.0000     -10.393993      -282.8349
  25   2.0000     -10.384826      -282.5855
  26   2.0000     -10.384774      -282.5841
  27   2.0000     -10.383790      -282.5573
  28   2.0000     -10.383446      -282.5479
  29   2.0000     -10.380469      -282.4669
  30   2.0000     -10.380468      -282.4669
  31   2.0000     -10.373496      -282.2772
  32   2.0000     -10.373404      -282.2747
  33   2.0000     -10.364122      -282.0221
  34   2.0000     -10.364082      -282.0210
  35   2.0000     -10.360434      -281.9217
  36   2.0000     -10.360345      -281.9193
  37   2.0000     -10.360130      -281.9135
  38   2.0000     -10.360011      -281.9102
  39   2.0000     -10.359084      -281.8850
  40   2.0000     -10.359033      -281.8836
  41   2.0000     -10.356442      -281.8131
  42   2.0000     -10.356122      -281.8044
  43   2.0000     -10.354772      -281.7677
  44   2.0000     -10.354601      -281.7630
  45   2.0000     -10.353272      -281.7269
  46   2.0000     -10.353238      -281.7259
  47   2.0000     -10.353045      -281.7207
  48   2.0000     -10.353028      -281.7202
  49   2.0000     -10.350446      -281.6499
  50   2.0000     -10.350362      -281.6477
  51   2.0000     -10.347637      -281.5735
  52   2.0000     -10.347528      -281.5706
  53   2.0000     -10.347098      -281.5588
  54   2.0000     -10.346986      -281.5558
  55   2.0000     -10.346963      -281.5552
  56   2.0000     -10.346893      -281.5533
  57   2.0000     -10.345865      -281.5253
  58   2.0000     -10.345753      -281.5222
  59   2.0000     -10.338665      -281.3294
  60   2.0000     -10.338662      -281.3293
  61   2.0000     -10.333087      -281.1776
  62   2.0000     -10.333060      -281.1769
  63   2.0000     -10.331266      -281.1280
  64   2.0000     -10.331141      -281.1246
  65   2.0000     -10.320560      -280.8367
  66   2.0000     -10.320464      -280.8341
  67   2.0000     -10.319601      -280.8106
  68   2.0000     -10.319500      -280.8079
  69   2.0000     -10.299026      -280.2507
  70   2.0000     -10.298487      -280.2361
  71   2.0000      -9.605394      -261.3761
  72   2.0000      -9.605363      -261.3752
  73   2.0000      -9.602987      -261.3105
  74   2.0000      -9.602934      -261.3091
  75   2.0000      -8.144481      -221.6226
  76   2.0000      -8.108454      -220.6422
  77   2.0000      -8.108208      -220.6355
  78   2.0000      -8.105716      -220.5677
  79   2.0000      -8.105641      -220.5657
  80   2.0000      -7.365395      -200.4226
  81   2.0000      -7.365359      -200.4216
  82   2.0000      -7.363029      -200.3582
  83   2.0000      -7.362966      -200.3565
  84   2.0000      -7.355450      -200.1520
  85   2.0000      -7.355408      -200.1508
  86   2.0000      -7.354792      -200.1341
  87   2.0000      -7.354747      -200.1328
  88   2.0000      -7.353012      -200.0856
  89   2.0000      -7.352938      -200.0836
  90   2.0000      -7.352345      -200.0675
  91   2.0000      -7.352296      -200.0661
  92   2.0000      -6.106294      -166.1607
  93   2.0000      -6.098394      -165.9457
  94   2.0000      -6.096168      -165.8852
  95   2.0000      -6.068544      -165.1335
  96   2.0000      -6.068283      -165.1264
  97   2.0000      -6.065862      -165.0605
  98   2.0000      -6.065778      -165.0582
  99   2.0000      -6.063805      -165.0045
 100   2.0000      -6.063573      -164.9982
 101   2.0000      -6.061809      -164.9502
 102   2.0000      -6.061729      -164.9480
 103   2.0000      -6.060247      -164.9077
 104   2.0000      -6.059959      -164.8999
 105   2.0000      -6.056745      -164.8124
 106   2.0000      -6.056628      -164.8092
 107   2.0000      -1.181902       -32.1612
 108   2.0000      -1.181901       -32.1612
 109   2.0000      -1.162124       -31.6230
 110   2.0000      -1.153343       -31.3841
 111   2.0000      -1.148663       -31.2567
 112   2.0000      -1.072598       -29.1869
 113   2.0000      -1.072576       -29.1863
 114   2.0000      -1.058864       -28.8132
 115   2.0000      -1.058693       -28.8085
 116   2.0000      -1.055930       -28.7333
 117   2.0000      -1.054701       -28.6999
 118   2.0000      -1.037122       -28.2215
 119   2.0000      -1.037032       -28.2191
 120   2.0000      -1.032571       -28.0977
 121   2.0000      -1.032546       -28.0970
 122   2.0000      -1.015495       -27.6330
 123   2.0000      -1.010249       -27.4903
 124   2.0000      -1.000760       -27.2321
 125   2.0000      -1.000747       -27.2317
 126   2.0000      -0.998294       -27.1649
 127   2.0000      -0.991563       -26.9818
 128   2.0000      -0.974780       -26.5251
 129   2.0000      -0.973088       -26.4791
 130   2.0000      -0.956290       -26.0220
 131   2.0000      -0.944343       -25.6969
 132   2.0000      -0.940143       -25.5826
 133   2.0000      -0.939674       -25.5698
 134   2.0000      -0.938674       -25.5426
 135   2.0000      -0.933286       -25.3960
 136   2.0000      -0.914521       -24.8854
 137   2.0000      -0.911295       -24.7976
 138   2.0000      -0.901974       -24.5440
 139   2.0000      -0.901927       -24.5427
 140   2.0000      -0.900357       -24.5000
 141   2.0000      -0.886655       -24.1271
 142   2.0000      -0.874695       -23.8017
 143   2.0000      -0.870558       -23.6891
 144   2.0000      -0.860380       -23.4121
 145   2.0000      -0.844692       -22.9852
 146   2.0000      -0.842628       -22.9291
 147   2.0000      -0.840239       -22.8641
 148   2.0000      -0.825503       -22.4631
 149   2.0000      -0.810312       -22.0497
 150   2.0000      -0.809229       -22.0203
 151   2.0000      -0.798959       -21.7408
 152   2.0000      -0.796021       -21.6608
 153   2.0000      -0.791160       -21.5286
 154   2.0000      -0.777461       -21.1558
 155   2.0000      -0.764560       -20.8047
 156   2.0000      -0.764484       -20.8027
 157   2.0000      -0.756214       -20.5776
 158   2.0000      -0.750413       -20.4198
 159   2.0000      -0.740710       -20.1558
 160   2.0000      -0.738110       -20.0850
 161   2.0000      -0.736329       -20.0365
 162   2.0000      -0.736298       -20.0357
 163   2.0000      -0.728342       -19.8192
 164   2.0000      -0.710693       -19.3389
 165   2.0000      -0.704177       -19.1616
 166   2.0000      -0.700253       -19.0548
 167   2.0000      -0.694763       -18.9055
 168   2.0000      -0.681117       -18.5341
 169   2.0000      -0.674384       -18.3509
 170   2.0000      -0.673705       -18.3325
 171   2.0000      -0.663522       -18.0554
 172   2.0000      -0.661586       -18.0027
 173   2.0000      -0.659392       -17.9430
 174   2.0000      -0.654998       -17.8234
 175   2.0000      -0.651657       -17.7325
 176   2.0000      -0.640579       -17.4310
 177   2.0000      -0.632997       -17.2247
 178   2.0000      -0.630260       -17.1502
 179   2.0000      -0.623684       -16.9713
 180   2.0000      -0.623609       -16.9693
 181   2.0000      -0.614731       -16.7277
 182   2.0000      -0.613582       -16.6964
 183   2.0000      -0.609063       -16.5735
 184   2.0000      -0.606543       -16.5049
 185   2.0000      -0.599760       -16.3203
 186   2.0000      -0.593011       -16.1367
 187   2.0000      -0.589624       -16.0445
 188   2.0000      -0.588714       -16.0197
 189   2.0000      -0.587781       -15.9943
 190   2.0000      -0.587419       -15.9845
 191   2.0000      -0.587234       -15.9795
 192   2.0000      -0.586803       -15.9677
 193   2.0000      -0.584279       -15.8990
 194   2.0000      -0.578449       -15.7404
 195   2.0000      -0.576044       -15.6750
 196   2.0000      -0.573525       -15.6064
 197   2.0000      -0.569484       -15.4965
 198   2.0000      -0.568635       -15.4733
 199   2.0000      -0.567257       -15.4359
 200   2.0000      -0.561605       -15.2821
 201   2.0000      -0.560809       -15.2604
 202   2.0000      -0.550632       -14.9835
 203   2.0000      -0.550032       -14.9671
 204   2.0000      -0.548662       -14.9298
 205   2.0000      -0.548086       -14.9142
 206   2.0000      -0.545867       -14.8538
 207   2.0000      -0.545031       -14.8310
 208   2.0000      -0.543350       -14.7853
 209   2.0000      -0.542436       -14.7604
 210   2.0000      -0.536453       -14.5976
 211   2.0000      -0.536216       -14.5912
 212   2.0000      -0.527949       -14.3662
 213   2.0000      -0.525457       -14.2984
 214   2.0000      -0.524136       -14.2625
 215   2.0000      -0.521334       -14.1862
 216   2.0000      -0.519969       -14.1491
 217   2.0000      -0.519471       -14.1355
 218   2.0000      -0.513772       -13.9805
 219   2.0000      -0.513618       -13.9763
 220   2.0000      -0.509405       -13.8616
 221   2.0000      -0.505942       -13.7674
 222   2.0000      -0.504389       -13.7251
 223   2.0000      -0.502631       -13.6773
 224   2.0000      -0.497142       -13.5279
 225   2.0000      -0.493900       -13.4397
 226   2.0000      -0.493762       -13.4359
 227   2.0000      -0.490776       -13.3547
 228   2.0000      -0.490358       -13.3433
 229   2.0000      -0.490151       -13.3377
 230   2.0000      -0.487690       -13.2707
 231   2.0000      -0.483322       -13.1519
 232   2.0000      -0.481437       -13.1006
 233   2.0000      -0.481307       -13.0970
 234   2.0000      -0.481187       -13.0938
 235   2.0000      -0.477389       -12.9904
 236   2.0000      -0.477337       -12.9890
 237   2.0000      -0.473962       -12.8972
 238   2.0000      -0.469145       -12.7661
 239   2.0000      -0.468860       -12.7583
 240   2.0000      -0.468244       -12.7416
 241   2.0000      -0.466193       -12.6857
 242   2.0000      -0.466153       -12.6847
 243   2.0000      -0.465689       -12.6720
 244   2.0000      -0.462505       -12.5854
 245   2.0000      -0.461434       -12.5563
 246   2.0000      -0.461157       -12.5487
 247   2.0000      -0.457395       -12.4464
 248   2.0000      -0.455341       -12.3905
 249   2.0000      -0.451932       -12.2977
 250   2.0000      -0.451695       -12.2912
 251   2.0000      -0.444561       -12.0971
 252   2.0000      -0.443707       -12.0739
 253   2.0000      -0.443609       -12.0712
 254   2.0000      -0.440650       -11.9907
 255   2.0000      -0.440280       -11.9806
 256   2.0000      -0.439854       -11.9690
 257   2.0000      -0.430303       -11.7091
 258   2.0000      -0.429946       -11.6994
 259   2.0000      -0.428597       -11.6627
 260   2.0000      -0.417932       -11.3725
 261   2.0000      -0.417927       -11.3724
 262   2.0000      -0.403091       -10.9687
 263   2.0000      -0.401323       -10.9206
 264   2.0000      -0.400140       -10.8884
 265   2.0000      -0.385010       -10.4767
 266   2.0000      -0.377321       -10.2674
 267   2.0000      -0.374708       -10.1963
 268   2.0000      -0.374301       -10.1853
 269   2.0000      -0.373360       -10.1597
 270   2.0000      -0.372878       -10.1465
 271   2.0000      -0.350259        -9.5310
 272   2.0000      -0.350014        -9.5244
 273   2.0000      -0.346496        -9.4286
 274   2.0000      -0.340172        -9.2566
 275   2.0000      -0.323251        -8.7961
 276   2.0000      -0.309053        -8.4098
 277   2.0000      -0.307700        -8.3729
 278   2.0000      -0.271341        -7.3836
 279   0.0000      -0.081861        -2.2275
 280   0.0000      -0.069900        -1.9021
 281   0.0000      -0.049085        -1.3357
 282   0.0000      -0.045535        -1.2391
 283   0.0000      -0.019679        -0.5355

MULLIKEN ATOMIC CHARGES
-----------------------
   0 C :    0.232690
   1 O :   -0.206585
   2 C :   -0.060817
   3 C :   -0.013234
   4 C :    0.041782
   5 Cl:   -0.046163
   6 C :    0.031555
   7 Cl:   -0.037007
   8 C :    0.000675
   9 C :    0.013365
  10 C :    0.293143
  11 C :   -0.381893
  12 C :   -0.120359
  13 N :    0.099698
  14 C :   -0.133374
  15 N :    0.109715
  16 C :   -0.151697
  17 C :    0.005999
  18 C :   -0.109125
  19 S :    0.188517
  20 C :   -0.012456
  21 C :   -0.092779
  22 C :   -0.080546
  23 C :    0.001323
  24 S :    0.206119
  25 C :   -0.048492
  26 C :    0.032914
  27 N :   -0.247156
  28 C :    0.115023
  29 C :   -0.126910
  30 C :    0.019227
  31 N :   -0.297686
  32 S :    0.480599
  33 N :   -0.297248
  34 C :    0.019149
  35 C :   -0.116956
  36 C :    0.104983
  37 N :   -0.239348
  38 C :    0.030500
  39 C :   -0.049384
  40 S :    0.206044
  41 C :   -0.091734
  42 C :   -0.014588
  43 S :    0.188879
  44 C :   -0.107774
  45 C :   -0.085950
  46 C :    0.002186
  47 C :    0.008250
  48 C :   -0.151388
  49 C :    0.290721
  50 C :   -0.379844
  51 C :   -0.129223
  52 N :    0.108964
  53 C :   -0.118047
  54 N :    0.093647
  55 C :    0.014816
  56 C :    0.004779
  57 C :    0.026130
  58 Cl:   -0.036824
  59 C :    0.042651
  60 Cl:   -0.046507
  61 C :   -0.009199
  62 C :   -0.066809
  63 C :    0.232473
  64 O :   -0.205279
  65 C :    0.055940
  66 C :    0.054941
  67 C :   -0.043656
  68 C :   -0.041988
  69 C :   -0.010944
  70 C :   -0.012554
  71 H :    0.027493
  72 H :    0.028215
  73 H :   -0.008205
  74 H :    0.061192
  75 H :    0.041755
  76 H :    0.061939
  77 H :    0.041791
  78 H :   -0.008700
  79 H :    0.028754
  80 H :    0.026429
  81 H :    0.025463
  82 H :    0.063818
  83 H :    0.024664
  84 H :    0.063926
  85 H :    0.057597
  86 H :    0.052853
  87 H :    0.056776
  88 H :    0.052588
  89 H :    0.056787
  90 H :    0.054827
  91 H :    0.033727
  92 H :    0.057199
  93 H :    0.035660
  94 H :    0.033717
  95 H :    0.057901
  96 H :    0.035956
Sum of atomic charges:   -0.0000000

LOEWDIN ATOMIC CHARGES
----------------------
   0 C :    0.092447
   1 O :   -0.172772
   2 C :   -0.047405
   3 C :   -0.000360
   4 C :   -0.135069
   5 Cl:    0.152956
   6 C :   -0.130688
   7 Cl:    0.157332
   8 C :   -0.009657
   9 C :   -0.016361
  10 C :    0.081294
  11 C :   -0.151599
  12 C :   -0.012533
  13 N :   -0.058426
  14 C :   -0.015839
  15 N :   -0.052945
  16 C :   -0.134452
  17 C :    0.067691
  18 C :   -0.197092
  19 S :    0.476541
  20 C :   -0.190256
  21 C :   -0.198178
  22 C :   -0.005882
  23 C :   -0.034159
  24 S :    0.418213
  25 C :   -0.163700
  26 C :   -0.046078
  27 N :    0.041502
  28 C :    0.016489
  29 C :   -0.082498
  30 C :   -0.053747
  31 N :   -0.286637
  32 S :    0.599153
  33 N :   -0.286790
  34 C :   -0.053796
  35 C :   -0.082598
  36 C :    0.016028
  37 N :    0.043005
  38 C :   -0.046399
  39 C :   -0.163691
  40 S :    0.417846
  41 C :   -0.198159
  42 C :   -0.190397
  43 S :    0.475830
  44 C :   -0.196947
  45 C :   -0.005847
  46 C :   -0.034372
  47 C :    0.067822
  48 C :   -0.134570
  49 C :    0.081395
  50 C :   -0.151716
  51 C :   -0.015649
  52 N :   -0.053073
  53 C :   -0.012028
  54 N :   -0.059007
  55 C :   -0.016367
  56 C :   -0.009396
  57 C :   -0.130994
  58 Cl:    0.157592
  59 C :   -0.135191
  60 Cl:    0.152775
  61 C :    0.000042
  62 C :   -0.047625
  63 C :    0.092252
  64 O :   -0.172724
  65 C :    0.036780
  66 C :    0.036670
  67 C :   -0.065212
  68 C :   -0.065600
  69 C :   -0.043732
  70 C :   -0.044127
  71 H :    0.048627
  72 H :    0.047271
  73 H :    0.047585
  74 H :    0.039783
  75 H :    0.034947
  76 H :    0.040012
  77 H :    0.034995
  78 H :    0.047570
  79 H :    0.047331
  80 H :    0.048489
  81 H :    0.027979
  82 H :    0.035594
  83 H :    0.028038
  84 H :    0.035053
  85 H :    0.038863
  86 H :    0.027111
  87 H :    0.028184
  88 H :    0.025823
  89 H :    0.028390
  90 H :    0.038363
  91 H :    0.025945
  92 H :    0.036257
  93 H :    0.028001
  94 H :    0.026024
  95 H :    0.036314
  96 H :    0.028134

  Mayer bond orders larger than 0.100000
B(  0-C ,  1-O ) :   2.1174 B(  0-C ,  2-C ) :   0.9608 B(  0-C , 16-C ) :   0.9855
B(  2-C ,  3-C ) :   1.3743 B(  2-C ,  9-C ) :   1.3339 B(  3-C ,  4-C ) :   1.3492
B(  3-C , 71-H ) :   1.0130 B(  4-C ,  5-Cl) :   1.0514 B(  4-C ,  6-C ) :   1.4114
B(  6-C ,  7-Cl) :   1.0817 B(  6-C ,  8-C ) :   1.3668 B(  8-C ,  9-C ) :   1.3720
B(  8-C , 72-H ) :   0.9850 B(  9-C , 10-C ) :   0.9991 B( 10-C , 11-C ) :   1.6267
B( 10-C , 16-C ) :   1.1104 B( 11-C , 12-C ) :   1.1411 B( 11-C , 14-C ) :   1.1333
B( 12-C , 13-N ) :   2.9534 B( 14-C , 15-N ) :   2.9670 B( 16-C , 17-C ) :   1.5048
B( 17-C , 18-C ) :   1.3320 B( 17-C , 73-H ) :   0.9274 B( 18-C , 19-S ) :   1.0380
B( 18-C , 22-C ) :   1.3748 B( 19-S , 20-C ) :   1.0363 B( 20-C , 21-C ) :   1.4035
B( 20-C , 26-C ) :   1.3132 B( 21-C , 22-C ) :   1.4586 B( 21-C , 24-S ) :   1.0185
B( 22-C , 23-C ) :   1.0556 B( 23-C , 69-C ) :   1.0886 B( 23-C , 74-H ) :   0.9136
B( 23-C , 75-H ) :   0.9325 B( 24-S , 25-C ) :   1.0219 B( 25-C , 26-C ) :   1.4061
B( 25-C , 29-C ) :   1.4039 B( 26-C , 27-N ) :   1.1420 B( 27-N , 28-C ) :   1.1774
B( 27-N , 65-C ) :   0.9247 B( 28-C , 29-C ) :   1.3833 B( 28-C , 36-C ) :   1.1275
B( 29-C , 30-C ) :   1.1325 B( 30-C , 31-N ) :   1.6191 B( 30-C , 34-C ) :   1.1384
B( 31-N , 32-S ) :   1.2295 B( 31-N , 33-N ) :   0.1302 B( 32-S , 33-N ) :   1.2288
B( 33-N , 34-C ) :   1.6207 B( 34-C , 35-C ) :   1.1313 B( 35-C , 36-C ) :   1.3811
B( 35-C , 39-C ) :   1.4043 B( 36-C , 37-N ) :   1.1814 B( 37-N , 38-C ) :   1.1422
B( 37-N , 66-C ) :   0.9247 B( 38-C , 39-C ) :   1.4076 B( 38-C , 42-C ) :   1.3149
B( 39-C , 40-S ) :   1.0211 B( 40-S , 41-C ) :   1.0186 B( 41-C , 42-C ) :   1.4017
B( 41-C , 45-C ) :   1.4605 B( 42-C , 43-S ) :   1.0370 B( 43-S , 44-C ) :   1.0373
B( 44-C , 45-C ) :   1.3767 B( 44-C , 47-C ) :   1.3330 B( 45-C , 46-C ) :   1.0555
B( 46-C , 70-C ) :   1.0882 B( 46-C , 76-H ) :   0.9133 B( 46-C , 77-H ) :   0.9322
B( 47-C , 48-C ) :   1.5062 B( 47-C , 78-H ) :   0.9267 B( 48-C , 49-C ) :   1.1116
B( 48-C , 63-C ) :   0.9843 B( 49-C , 50-C ) :   1.6256 B( 49-C , 55-C ) :   1.0017
B( 50-C , 51-C ) :   1.1302 B( 50-C , 53-C ) :   1.1411 B( 51-C , 52-N ) :   2.9671
B( 53-C , 54-N ) :   2.9505 B( 55-C , 56-C ) :   1.3705 B( 55-C , 62-C ) :   1.3322
B( 56-C , 57-C ) :   1.3679 B( 56-C , 79-H ) :   0.9844 B( 57-C , 58-Cl) :   1.0818
B( 57-C , 59-C ) :   1.4121 B( 59-C , 60-Cl) :   1.0499 B( 59-C , 61-C ) :   1.3505
B( 61-C , 62-C ) :   1.3741 B( 61-C , 80-H ) :   1.0129 B( 62-C , 63-C ) :   0.9621
B( 63-C , 64-O ) :   2.1185 B( 65-C , 68-C ) :   1.0856 B( 65-C , 81-H ) :   0.9514
B( 65-C , 82-H ) :   0.9472 B( 66-C , 67-C ) :   1.0871 B( 66-C , 83-H ) :   0.9510
B( 66-C , 84-H ) :   0.9461 B( 67-C , 85-H ) :   0.9698 B( 67-C , 86-H ) :   0.9551
B( 67-C , 87-H ) :   0.9590 B( 68-C , 88-H ) :   0.9547 B( 68-C , 89-H ) :   0.9590
B( 68-C , 90-H ) :   0.9701 B( 69-C , 91-H ) :   0.9724 B( 69-C , 92-H ) :   0.9708
B( 69-C , 93-H ) :   0.9698 B( 70-C , 94-H ) :   0.9728 B( 70-C , 95-H ) :   0.9709
B( 70-C , 96-H ) :   0.9698

-----------------------------------------------------------------------------
         ABSORPTION SPECTRUM VIA TRANSITION ELECTRIC DIPOLE MOMENTS
-----------------------------------------------------------------------------
State   Energy  Wavelength   fosc         T2         TX        TY        TZ
        (cm-1)    (nm)                  (au**2)     (au)      (au)      (au)
-----------------------------------------------------------------------------
   0   19250.6    519.5   2.895066510  49.50963   0.75660   6.87231  -1.30709
   1   24766.6    403.8   0.844288919  11.22279  -0.20157   0.64298   3.28157
   2   28423.8    351.8   0.018835731   0.21816  -0.04772  -0.46081   0.05944
   3   28707.5    348.3   0.000377760   0.00433   0.04647   0.04402  -0.01533
   4   29024.7    344.5   0.299428345   3.39626  -0.17743   0.19538   1.82390
   5   29145.0    343.1   0.151398810   1.71015  -0.02382   1.30697  -0.03741
   6   31502.3    317.4   0.020231495   0.21143  -0.19707  -0.41143   0.05761
   7   32381.7    308.8   0.000234516   0.00238   0.04854  -0.00273  -0.00454
   8   34291.5    291.6   0.076717433   0.73652  -0.04380   0.83936  -0.17340
   9   34893.4    286.6   0.276256394   2.60642  -0.16440   0.30448   1.57692
  10   36554.6    273.6   1.146190919  10.32263  -0.42921   0.62442   3.12226
  11   36904.3    271.0   0.015061841   0.13436   0.07990  -0.24558   0.26013
  12   37282.3    268.2   0.168517395   1.48805  -0.22047   1.18489  -0.18836
  13   37786.4    264.6   0.229851079   2.00257  -0.00138   1.38473  -0.29170
  14   39278.3    254.6   0.007727331   0.06477  -0.14850   0.09319   0.18448
  15   39502.9    253.1   0.037955239   0.31631  -0.14284   0.08289   0.53762
  16   39870.2    250.8   0.505567281   4.17451  -0.22214   0.40289   1.99069

Dispersion correction           -0.065283085
FINAL SINGLE POINT ENERGY     -6413.513133105354

DIPOLE MOMENT
-------------
                                X             Y             Z
Electronic contribution:     -4.85547      10.30692      53.72064
Nuclear contribution   :      4.55152     -10.13311     -52.96459
                        -----------------------------------------
Total Dipole Moment    :     -0.30395       0.17381       0.75605
                        -----------------------------------------
Magnitude (a.u.)       :      0.83319
Magnitude (Debye)      :      2.11780

Rotational constants in cm-1:     0.001025     0.000267     0.000213
Rotational constants in MHz :    30.717000     8.001067     6.390544

                             ****ORCA TERMINATED NORMALLY****
TOTAL RUN TIME: 0 days 0 hours 13 minutes 11 seconds 552 msec
