                         Program Version 4.2.0 -  RELEASE  -
|  1> # ORCA input file
|  2> # SCF done       -218.706323234413          0.000420886452
|  3> ! wb97x-d3 def2-SVP def2/J RIJCOSX Grid4 TightSCF
|  4> %maxcore 5000
|  5> %tddft
|  6>     Mode sTDDFT
|  7>     Ethresh 5.0
|  8>     maxcore 5000
|  9> end
| 10>
| 11> %pal
| 12>   nprocs 6
| 13>   end
| 14> * xyz 0 1
| 15>    C        2.84168         3.63451       -11.50257
| 16>    O        1.89239         2.93708       -11.19130
| 17>    C        3.60509         3.55143       -12.76697
| 18>    C        3.41574         2.69256       -13.83039
| 19>    C        4.27335         2.81201       -14.91265
| 20>    C        5.28641         3.76977       -14.91352
| 21>    C        5.47542         4.63316       -13.84375
| 22>    C        4.62224         4.52033       -12.75796
| 23>    C        4.55441         5.26217       -11.49626
| 24>    C        5.39094         6.29234       -11.14600
| 25>    C        5.34239         7.02296        -9.94092
| 26>    N        5.37529         7.66865        -8.99076
| 27>    C        6.43595         6.77526       -11.96122
| 28>    N        7.30291         7.21709       -12.57048
| 29>    C        3.46176         4.70825       -10.72896
| 30>    C        3.07268         5.11965        -9.47210
| 31>    C      -13.56320         1.49472         6.80152
| 32>    O      -12.58941         1.72333         6.10595
| 33>    C      -13.85036         2.10360         8.11817
| 34>    C      -13.10133         3.02754         8.81790
| 35>    C      -13.58687         3.44947        10.04552
| 36>    C      -14.78993         2.95000        10.54242
| 37>    C      -15.54194         2.02094         9.83734
| 38>    C      -15.06342         1.59358         8.60925
| 39>    C      -15.60193         0.64117         7.63429
| 40>    C      -16.77887        -0.04945         7.78126
| 41>    C      -17.31776        -0.96927         6.85844
| 42>    N      -17.82702        -1.73072         6.16445
| 43>    C      -17.63063         0.06882         8.89945
| 44>    N      -18.36843         0.11643         9.77772
| 45>    C      -14.67320         0.58409         6.52765
| 46>    C      -14.80911        -0.20145         5.40232
| 47>    C      -13.98981        -0.33409         4.28222
| 48>    S      -12.48008         0.51830         3.97411
| 49>    C      -12.33596        -0.29665         2.48038
| 50>    C      -13.38361        -1.20313         2.21797
| 51>    C      -14.31485        -1.20713         3.22492
| 52>    C      -11.45234        -0.31362         1.38712
| 53>    C      -11.90976        -1.21435         0.42058
| 54>    C      -13.19895        -1.86867         0.86968
| 55>    S       -9.98053         0.44809         0.94181
| 56>    C       -9.95699        -0.46167        -0.55256
| 57>    C      -11.05437        -1.30751        -0.66786
| 58>    C       -2.77998         2.33638        -5.32862
| 59>    S       -2.15134         1.94817        -6.91583
| 60>    C       -0.93464         3.15024        -6.73029
| 61>    C       -1.02492         3.82205        -5.50715
| 62>    C       -2.05735         3.34950        -4.71288
| 63>    C        0.15411         3.65185        -7.46712
| 64>    C        0.77504         4.66298        -6.70375
| 65>    C        0.06932         4.85666        -5.37923
| 66>    S        0.88511         3.39187        -8.99056
| 67>    C        2.04566         4.67035        -8.64377
| 68>    C        1.82248         5.23902        -7.37472
| 69>    C        0.96144         4.48157        -4.17906
| 70>    C        2.15373         5.40055        -3.95161
| 71>    C       -0.48742         6.29315        -5.32246
| 72>    C       -1.30411         6.61986        -4.07955
| 73>    C      -14.39250        -1.48992        -0.02945
| 74>    C      -14.31866        -2.01667        -1.45611
| 75>    C      -12.96326        -3.38697         0.99318
| 76>    C      -14.15560        -4.18365         1.50478
| 77>    F      -15.23583         3.37454        11.73096
| 78>    F      -12.89372         4.34500        10.76074
| 79>    F        4.12726         1.99914       -15.96730
| 80>    F        6.10108         3.86285       -15.97153
| 81>    C       -8.89900        -0.27720        -1.47635
| 82>    S       -7.63245         0.88324        -1.12758
| 83>    C       -6.87679         0.51045        -2.61868
| 84>    C       -7.55425        -0.47309        -3.34300
| 85>    C       -8.70477        -0.90814        -2.69835
| 86>    C       -5.76719         0.95531        -3.36593
| 87>    C       -5.72290         0.26277        -4.57575
| 88>    C       -6.84377        -0.75117        -4.64868
| 89>    S       -4.51061         2.11055        -3.21353
| 90>    C       -3.90744         1.66497        -4.80179
| 91>    C       -4.66712         0.66170        -5.38422
| 92>    C       -7.75483        -0.51746        -5.86340
| 93>    C       -8.28712         0.90916        -5.93299
| 94>    C       -6.20828        -2.15922        -4.67070
| 95>    C       -7.19496        -3.31297        -4.55447
| 96>    H        2.63086         1.95324       -13.82508
| 97>    H        6.27363         5.35506       -13.89505
| 98>    H        3.64677         5.92641        -9.03301
| 99>    H      -12.17153         3.41038         8.42856
|100>    H      -16.46442         1.66768        10.26754
|101>    H      -15.69177        -0.82767         5.35815
|102>    H      -15.21842        -1.79016         3.24705
|103>    H      -11.19340        -1.95527        -1.51330
|104>    H       -2.30027         3.69481        -3.72415
|105>    H        2.43254         6.04861        -7.01542
|106>    H        0.33771         4.46459        -3.28403
|107>    H        1.32376         3.46339        -4.34363
|108>    H        1.83729         6.42081        -3.75401
|109>    H        2.71917         5.05029        -3.09100
|110>    H        2.81549         5.39816        -4.81277
|111>    H        0.35255         6.98459        -5.39956
|112>    H       -1.11275         6.43980        -6.20703
|113>    H       -0.71620         6.49739        -3.17421
|114>    H       -1.63601         7.65449        -4.12874
|115>    H       -2.18471         5.98705        -4.01546
|116>    H      -15.30381        -1.85355         0.44685
|117>    H      -14.45162        -0.39878        -0.05660
|118>    H      -14.27536        -3.10210        -1.47703
|119>    H      -15.20593        -1.70392        -2.00198
|120>    H      -13.44895        -1.61878        -1.97134
|121>    H      -12.66414        -3.76588         0.01463
|122>    H      -12.11941        -3.53498         1.67208
|123>    H      -15.01165        -4.08771         0.84284
|124>    H      -13.88852        -5.23660         1.56032
|125>    H      -14.44226        -3.85624         2.49975
|126>    H       -9.39276        -1.63632        -3.08628
|127>    H       -4.44130         0.26824        -6.35923
|128>    H       -7.18845        -0.73957        -6.76991
|129>    H       -8.59677        -1.20837        -5.80932
|130>    H       -7.47178         1.62265        -6.02611
|131>    H       -8.94028         1.02110        -6.79493
|132>    H       -8.85526         1.15187        -5.03772
|133>    H       -5.64495        -2.25544        -5.60118
|134>    H       -5.49617        -2.21996        -3.84387
|135>    H       -7.91172        -3.30642        -5.37103
|136>    H       -6.65288        -4.25513        -4.58999
|137>    H       -7.73234        -3.26774        -3.61129
|138> *
|139>
|140>                          ****END OF INPUT****

CARTESIAN COORDINATES (ANGSTROEM)
---------------------------------
  C      2.841680    3.634510  -11.502570
  O      1.892390    2.937080  -11.191300
  C      3.605090    3.551430  -12.766970
  C      3.415740    2.692560  -13.830390
  C      4.273350    2.812010  -14.912650
  C      5.286410    3.769770  -14.913520
  C      5.475420    4.633160  -13.843750
  C      4.622240    4.520330  -12.757960
  C      4.554410    5.262170  -11.496260
  C      5.390940    6.292340  -11.146000
  C      5.342390    7.022960   -9.940920
  N      5.375290    7.668650   -8.990760
  C      6.435950    6.775260  -11.961220
  N      7.302910    7.217090  -12.570480
  C      3.461760    4.708250  -10.728960
  C      3.072680    5.119650   -9.472100
  C    -13.563200    1.494720    6.801520
  O    -12.589410    1.723330    6.105950
  C    -13.850360    2.103600    8.118170
  C    -13.101330    3.027540    8.817900
  C    -13.586870    3.449470   10.045520
  C    -14.789930    2.950000   10.542420
  C    -15.541940    2.020940    9.837340
  C    -15.063420    1.593580    8.609250
  C    -15.601930    0.641170    7.634290
  C    -16.778870   -0.049450    7.781260
  C    -17.317760   -0.969270    6.858440
  N    -17.827020   -1.730720    6.164450
  C    -17.630630    0.068820    8.899450
  N    -18.368430    0.116430    9.777720
  C    -14.673200    0.584090    6.527650
  C    -14.809110   -0.201450    5.402320
  C    -13.989810   -0.334090    4.282220
  S    -12.480080    0.518300    3.974110
  C    -12.335960   -0.296650    2.480380
  C    -13.383610   -1.203130    2.217970
  C    -14.314850   -1.207130    3.224920
  C    -11.452340   -0.313620    1.387120
  C    -11.909760   -1.214350    0.420580
  C    -13.198950   -1.868670    0.869680
  S     -9.980530    0.448090    0.941810
  C     -9.956990   -0.461670   -0.552560
  C    -11.054370   -1.307510   -0.667860
  C     -2.779980    2.336380   -5.328620
  S     -2.151340    1.948170   -6.915830
  C     -0.934640    3.150240   -6.730290
  C     -1.024920    3.822050   -5.507150
  C     -2.057350    3.349500   -4.712880
  C      0.154110    3.651850   -7.467120
  C      0.775040    4.662980   -6.703750
  C      0.069320    4.856660   -5.379230
  S      0.885110    3.391870   -8.990560
  C      2.045660    4.670350   -8.643770
  C      1.822480    5.239020   -7.374720
  C      0.961440    4.481570   -4.179060
  C      2.153730    5.400550   -3.951610
  C     -0.487420    6.293150   -5.322460
  C     -1.304110    6.619860   -4.079550
  C    -14.392500   -1.489920   -0.029450
  C    -14.318660   -2.016670   -1.456110
  C    -12.963260   -3.386970    0.993180
  C    -14.155600   -4.183650    1.504780
  F    -15.235830    3.374540   11.730960
  F    -12.893720    4.345000   10.760740
  F      4.127260    1.999140  -15.967300
  F      6.101080    3.862850  -15.971530
  C     -8.899000   -0.277200   -1.476350
  S     -7.632450    0.883240   -1.127580
  C     -6.876790    0.510450   -2.618680
  C     -7.554250   -0.473090   -3.343000
  C     -8.704770   -0.908140   -2.698350
  C     -5.767190    0.955310   -3.365930
  C     -5.722900    0.262770   -4.575750
  C     -6.843770   -0.751170   -4.648680
  S     -4.510610    2.110550   -3.213530
  C     -3.907440    1.664970   -4.801790
  C     -4.667120    0.661700   -5.384220
  C     -7.754830   -0.517460   -5.863400
  C     -8.287120    0.909160   -5.932990
  C     -6.208280   -2.159220   -4.670700
  C     -7.194960   -3.312970   -4.554470
  H      2.630860    1.953240  -13.825080
  H      6.273630    5.355060  -13.895050
  H      3.646770    5.926410   -9.033010
  H    -12.171530    3.410380    8.428560
  H    -16.464420    1.667680   10.267540
  H    -15.691770   -0.827670    5.358150
  H    -15.218420   -1.790160    3.247050
  H    -11.193400   -1.955270   -1.513300
  H     -2.300270    3.694810   -3.724150
  H      2.432540    6.048610   -7.015420
  H      0.337710    4.464590   -3.284030
  H      1.323760    3.463390   -4.343630
  H      1.837290    6.420810   -3.754010
  H      2.719170    5.050290   -3.091000
  H      2.815490    5.398160   -4.812770
  H      0.352550    6.984590   -5.399560
  H     -1.112750    6.439800   -6.207030
  H     -0.716200    6.497390   -3.174210
  H     -1.636010    7.654490   -4.128740
  H     -2.184710    5.987050   -4.015460
  H    -15.303810   -1.853550    0.446850
  H    -14.451620   -0.398780   -0.056600
  H    -14.275360   -3.102100   -1.477030
  H    -15.205930   -1.703920   -2.001980
  H    -13.448950   -1.618780   -1.971340
  H    -12.664140   -3.765880    0.014630
  H    -12.119410   -3.534980    1.672080
  H    -15.011650   -4.087710    0.842840
  H    -13.888520   -5.236600    1.560320
  H    -14.442260   -3.856240    2.499750
  H     -9.392760   -1.636320   -3.086280
  H     -4.441300    0.268240   -6.359230
  H     -7.188450   -0.739570   -6.769910
  H     -8.596770   -1.208370   -5.809320
  H     -7.471780    1.622650   -6.026110
  H     -8.940280    1.021100   -6.794930
  H     -8.855260    1.151870   -5.037720
  H     -5.644950   -2.255440   -5.601180
  H     -5.496170   -2.219960   -3.843870
  H     -7.911720   -3.306420   -5.371030
  H     -6.652880   -4.255130   -4.589990
  H     -7.732340   -3.267740   -3.611290

 Total Charge           Charge          ....    0
 Multiplicity           Mult            ....    1
 Number of Electrons    NEL             ....  608
 Basis Dimension        Dim             .... 1368

ORBITAL ENERGIES
----------------

  NO   OCC          E(Eh)            E(eV)
   0   2.0000     -89.001166     -2421.8448
   1   2.0000     -89.000344     -2421.8225
   2   2.0000     -89.000193     -2421.8184
   3   2.0000     -88.999916     -2421.8108
   4   2.0000     -88.995184     -2421.6821
   5   2.0000     -88.994790     -2421.6714
   6   2.0000     -24.830456      -675.6710
   7   2.0000     -24.830282      -675.6663
   8   2.0000     -24.828573      -675.6198
   9   2.0000     -24.828467      -675.6169
  10   2.0000     -19.255635      -523.9725
  11   2.0000     -19.255542      -523.9699
  12   2.0000     -14.449971      -393.2037
  13   2.0000     -14.449914      -393.2022
  14   2.0000     -14.445250      -393.0752
  15   2.0000     -14.445157      -393.0727
  16   2.0000     -10.415763      -283.4273
  17   2.0000     -10.415611      -283.4232
  18   2.0000     -10.415141      -283.4104
  19   2.0000     -10.414959      -283.4054
  20   2.0000     -10.402916      -283.0777
  21   2.0000     -10.402777      -283.0739
  22   2.0000     -10.377403      -282.3835
  23   2.0000     -10.377308      -282.3809
  24   2.0000     -10.372170      -282.2411
  25   2.0000     -10.372070      -282.2384
  26   2.0000     -10.363242      -281.9981
  27   2.0000     -10.362663      -281.9824
  28   2.0000     -10.356374      -281.8113
  29   2.0000     -10.356307      -281.8094
  30   2.0000     -10.356167      -281.8056
  31   2.0000     -10.356133      -281.8047
  32   2.0000     -10.354715      -281.7661
  33   2.0000     -10.353863      -281.7429
  34   2.0000     -10.351625      -281.6820
  35   2.0000     -10.351566      -281.6804
  36   2.0000     -10.350008      -281.6380
  37   2.0000     -10.348963      -281.6096
  38   2.0000     -10.348076      -281.5855
  39   2.0000     -10.347954      -281.5821
  40   2.0000     -10.347265      -281.5634
  41   2.0000     -10.347083      -281.5584
  42   2.0000     -10.346985      -281.5558
  43   2.0000     -10.346856      -281.5523
  44   2.0000     -10.346752      -281.5494
  45   2.0000     -10.346407      -281.5401
  46   2.0000     -10.339194      -281.3438
  47   2.0000     -10.338801      -281.3331
  48   2.0000     -10.338452      -281.3236
  49   2.0000     -10.338427      -281.3229
  50   2.0000     -10.338124      -281.3147
  51   2.0000     -10.337167      -281.2886
  52   2.0000     -10.336601      -281.2732
  53   2.0000     -10.333692      -281.1941
  54   2.0000     -10.333157      -281.1795
  55   2.0000     -10.332405      -281.1590
  56   2.0000     -10.332134      -281.1517
  57   2.0000     -10.328043      -281.0403
  58   2.0000     -10.327548      -281.0269
  59   2.0000     -10.326892      -281.0090
  60   2.0000     -10.326265      -280.9919
  61   2.0000     -10.324794      -280.9519
  62   2.0000     -10.323902      -280.9276
  63   2.0000     -10.323870      -280.9268
  64   2.0000     -10.323661      -280.9211
  65   2.0000     -10.320877      -280.8453
  66   2.0000     -10.320067      -280.8233
  67   2.0000     -10.319031      -280.7951
  68   2.0000     -10.318711      -280.7864
  69   2.0000     -10.312111      -280.6068
  70   2.0000     -10.312052      -280.6052
  71   2.0000     -10.312027      -280.6045
  72   2.0000     -10.311642      -280.5940
  73   2.0000     -10.310996      -280.5765
  74   2.0000     -10.310957      -280.5754
  75   2.0000     -10.298610      -280.2394
  76   2.0000     -10.297512      -280.2095
  77   2.0000     -10.296763      -280.1892
  78   2.0000     -10.296622      -280.1853
  79   2.0000     -10.295675      -280.1596
  80   2.0000     -10.290986      -280.0320
  81   2.0000      -8.114349      -220.8027
  82   2.0000      -8.114001      -220.7932
  83   2.0000      -8.113768      -220.7868
  84   2.0000      -8.113094      -220.7685
  85   2.0000      -8.106690      -220.5942
  86   2.0000      -8.106368      -220.5855
  87   2.0000      -6.073961      -165.2809
  88   2.0000      -6.073591      -165.2708
  89   2.0000      -6.073335      -165.2638
  90   2.0000      -6.072706      -165.2467
  91   2.0000      -6.069850      -165.1690
  92   2.0000      -6.069432      -165.1576
  93   2.0000      -6.069214      -165.1517
  94   2.0000      -6.068613      -165.1354
  95   2.0000      -6.066506      -165.0780
  96   2.0000      -6.066398      -165.0751
  97   2.0000      -6.066138      -165.0680
  98   2.0000      -6.066096      -165.0669
  99   2.0000      -6.065966      -165.0633
 100   2.0000      -6.065272      -165.0444
 101   2.0000      -6.061760      -164.9489
 102   2.0000      -6.061416      -164.9395
 103   2.0000      -6.059009      -164.8740
 104   2.0000      -6.058662      -164.8646
 105   2.0000      -1.359660       -36.9982
 106   2.0000      -1.359537       -36.9949
 107   2.0000      -1.344610       -36.5887
 108   2.0000      -1.344474       -36.5850
 109   2.0000      -1.173718       -31.9385
 110   2.0000      -1.173523       -31.9332
 111   2.0000      -1.066872       -29.0311
 112   2.0000      -1.063859       -28.9491
 113   2.0000      -1.059915       -28.8417
 114   2.0000      -1.056761       -28.7559
 115   2.0000      -1.056681       -28.7537
 116   2.0000      -1.038765       -28.2662
 117   2.0000      -1.038685       -28.2641
 118   2.0000      -1.034948       -28.1624
 119   2.0000      -1.028663       -27.9913
 120   2.0000      -1.028553       -27.9884
 121   2.0000      -1.025392       -27.9023
 122   2.0000      -1.014526       -27.6067
 123   2.0000      -0.994273       -27.0555
 124   2.0000      -0.992991       -27.0207
 125   2.0000      -0.983881       -26.7728
 126   2.0000      -0.975735       -26.5511
 127   2.0000      -0.969112       -26.3709
 128   2.0000      -0.942460       -25.6456
 129   2.0000      -0.942156       -25.6374
 130   2.0000      -0.935403       -25.4536
 131   2.0000      -0.933324       -25.3970
 132   2.0000      -0.924470       -25.1561
 133   2.0000      -0.910406       -24.7734
 134   2.0000      -0.909462       -24.7477
 135   2.0000      -0.907825       -24.7032
 136   2.0000      -0.897855       -24.4319
 137   2.0000      -0.890730       -24.2380
 138   2.0000      -0.890302       -24.2263
 139   2.0000      -0.885830       -24.1047
 140   2.0000      -0.884929       -24.0801
 141   2.0000      -0.884052       -24.0563
 142   2.0000      -0.882259       -24.0075
 143   2.0000      -0.881296       -23.9813
 144   2.0000      -0.875874       -23.8337
 145   2.0000      -0.872723       -23.7480
 146   2.0000      -0.866623       -23.5820
 147   2.0000      -0.851931       -23.1822
 148   2.0000      -0.837939       -22.8015
 149   2.0000      -0.821198       -22.3459
 150   2.0000      -0.810603       -22.0576
 151   2.0000      -0.809767       -22.0349
 152   2.0000      -0.808309       -21.9952
 153   2.0000      -0.807418       -21.9710
 154   2.0000      -0.803868       -21.8744
 155   2.0000      -0.790348       -21.5065
 156   2.0000      -0.779259       -21.2047
 157   2.0000      -0.758017       -20.6267
 158   2.0000      -0.754590       -20.5334
 159   2.0000      -0.751986       -20.4626
 160   2.0000      -0.743891       -20.2423
 161   2.0000      -0.742001       -20.1909
 162   2.0000      -0.740423       -20.1479
 163   2.0000      -0.739022       -20.1098
 164   2.0000      -0.730934       -19.8897
 165   2.0000      -0.729268       -19.8444
 166   2.0000      -0.720756       -19.6128
 167   2.0000      -0.715691       -19.4749
 168   2.0000      -0.715045       -19.4574
 169   2.0000      -0.706684       -19.2298
 170   2.0000      -0.694712       -18.9041
 171   2.0000      -0.691803       -18.8249
 172   2.0000      -0.682909       -18.5829
 173   2.0000      -0.679659       -18.4945
 174   2.0000      -0.677771       -18.4431
 175   2.0000      -0.676989       -18.4218
 176   2.0000      -0.675169       -18.3723
 177   2.0000      -0.673601       -18.3296
 178   2.0000      -0.672014       -18.2864
 179   2.0000      -0.669450       -18.2167
 180   2.0000      -0.662344       -18.0233
 181   2.0000      -0.661903       -18.0113
 182   2.0000      -0.655105       -17.8263
 183   2.0000      -0.650338       -17.6966
 184   2.0000      -0.644197       -17.5295
 185   2.0000      -0.639352       -17.3977
 186   2.0000      -0.629900       -17.1404
 187   2.0000      -0.628396       -17.0995
 188   2.0000      -0.624533       -16.9944
 189   2.0000      -0.623093       -16.9552
 190   2.0000      -0.620339       -16.8803
 191   2.0000      -0.620162       -16.8755
 192   2.0000      -0.613846       -16.7036
 193   2.0000      -0.611538       -16.6408
 194   2.0000      -0.602007       -16.3814
 195   2.0000      -0.599383       -16.3100
 196   2.0000      -0.591894       -16.1062
 197   2.0000      -0.589236       -16.0339
 198   2.0000      -0.588012       -16.0006
 199   2.0000      -0.586616       -15.9626
 200   2.0000      -0.585932       -15.9440
 201   2.0000      -0.583463       -15.8768
 202   2.0000      -0.583149       -15.8683
 203   2.0000      -0.579348       -15.7649
 204   2.0000      -0.579140       -15.7592
 205   2.0000      -0.577272       -15.7084
 206   2.0000      -0.573531       -15.6066
 207   2.0000      -0.573112       -15.5952
 208   2.0000      -0.572970       -15.5913
 209   2.0000      -0.571665       -15.5558
 210   2.0000      -0.568988       -15.4830
 211   2.0000      -0.566762       -15.4224
 212   2.0000      -0.561233       -15.2719
 213   2.0000      -0.560535       -15.2529
 214   2.0000      -0.559010       -15.2114
 215   2.0000      -0.557617       -15.1735
 216   2.0000      -0.555155       -15.1065
 217   2.0000      -0.549100       -14.9418
 218   2.0000      -0.544456       -14.8154
 219   2.0000      -0.542071       -14.7505
 220   2.0000      -0.541420       -14.7328
 221   2.0000      -0.535829       -14.5807
 222   2.0000      -0.534808       -14.5529
 223   2.0000      -0.532248       -14.4832
 224   2.0000      -0.530688       -14.4408
 225   2.0000      -0.530063       -14.4238
 226   2.0000      -0.528612       -14.3843
 227   2.0000      -0.527295       -14.3484
 228   2.0000      -0.526278       -14.3208
 229   2.0000      -0.526102       -14.3160
 230   2.0000      -0.524249       -14.2655
 231   2.0000      -0.522071       -14.2063
 232   2.0000      -0.521253       -14.1840
 233   2.0000      -0.519329       -14.1317
 234   2.0000      -0.516845       -14.0641
 235   2.0000      -0.516174       -14.0458
 236   2.0000      -0.514505       -14.0004
 237   2.0000      -0.510855       -13.9011
 238   2.0000      -0.510548       -13.8927
 239   2.0000      -0.508829       -13.8459
 240   2.0000      -0.505647       -13.7594
 241   2.0000      -0.498704       -13.5704
 242   2.0000      -0.496211       -13.5026
 243   2.0000      -0.494291       -13.4503
 244   2.0000      -0.492297       -13.3961
 245   2.0000      -0.489929       -13.3317
 246   2.0000      -0.488828       -13.3017
 247   2.0000      -0.487421       -13.2634
 248   2.0000      -0.486855       -13.2480
 249   2.0000      -0.485782       -13.2188
 250   2.0000      -0.485176       -13.2023
 251   2.0000      -0.484083       -13.1726
 252   2.0000      -0.483079       -13.1453
 253   2.0000      -0.482504       -13.1296
 254   2.0000      -0.482309       -13.1243
 255   2.0000      -0.481302       -13.0969
 256   2.0000      -0.478783       -13.0283
 257   2.0000      -0.477475       -12.9928
 258   2.0000      -0.474712       -12.9176
 259   2.0000      -0.474626       -12.9152
 260   2.0000      -0.472693       -12.8626
 261   2.0000      -0.470930       -12.8146
 262   2.0000      -0.464205       -12.6317
 263   2.0000      -0.464178       -12.6309
 264   2.0000      -0.461346       -12.5539
 265   2.0000      -0.459858       -12.5134
 266   2.0000      -0.459670       -12.5083
 267   2.0000      -0.458502       -12.4765
 268   2.0000      -0.457467       -12.4483
 269   2.0000      -0.454608       -12.3705
 270   2.0000      -0.451362       -12.2822
 271   2.0000      -0.449258       -12.2249
 272   2.0000      -0.449018       -12.2184
 273   2.0000      -0.442202       -12.0329
 274   2.0000      -0.441272       -12.0076
 275   2.0000      -0.440484       -11.9862
 276   2.0000      -0.439068       -11.9477
 277   2.0000      -0.438528       -11.9330
 278   2.0000      -0.437980       -11.9180
 279   2.0000      -0.435407       -11.8480
 280   2.0000      -0.434862       -11.8332
 281   2.0000      -0.429798       -11.6954
 282   2.0000      -0.428450       -11.6587
 283   2.0000      -0.427935       -11.6447
 284   2.0000      -0.427757       -11.6399
 285   2.0000      -0.417074       -11.3492
 286   2.0000      -0.400503       -10.8982
 287   2.0000      -0.384225       -10.4553
 288   2.0000      -0.379741       -10.3333
 289   2.0000      -0.376241       -10.2380
 290   2.0000      -0.373020       -10.1504
 291   2.0000      -0.371064       -10.0972
 292   2.0000      -0.368016       -10.0142
 293   2.0000      -0.367629       -10.0037
 294   2.0000      -0.367415        -9.9979
 295   2.0000      -0.364074        -9.9070
 296   2.0000      -0.362937        -9.8760
 297   2.0000      -0.360039        -9.7972
 298   2.0000      -0.349712        -9.5162
 299   2.0000      -0.343572        -9.3491
 300   2.0000      -0.337908        -9.1950
 301   2.0000      -0.311238        -8.4692
 302   2.0000      -0.281634        -7.6636
 303   2.0000      -0.253673        -6.9028
 304   0.0000      -0.077187        -2.1004
 305   0.0000      -0.067822        -1.8455
 306   0.0000      -0.042402        -1.1538
 307   0.0000      -0.037221        -1.0128
 308   0.0000      -0.023694        -0.6448

MULLIKEN ATOMIC CHARGES
-----------------------
   0 C :    0.229470
   1 O :   -0.205360
   2 C :   -0.056729
   3 C :   -0.097868
   4 C :    0.241370
   5 C :    0.244182
   6 C :   -0.090363
   7 C :    0.025816
   8 C :    0.292898
   9 C :   -0.383785
  10 C :   -0.127077
  11 N :    0.092902
  12 C :   -0.134099
  13 N :    0.104903
  14 C :   -0.150605
  15 C :   -0.003017
  16 C :    0.230482
  17 O :   -0.205496
  18 C :   -0.059116
  19 C :   -0.092294
  20 C :    0.240334
  21 C :    0.243266
  22 C :   -0.084873
  23 C :    0.022555
  24 C :    0.291240
  25 C :   -0.386176
  26 C :   -0.124519
  27 N :    0.088898
  28 C :   -0.134757
  29 N :    0.108052
  30 C :   -0.153402
  31 C :    0.000666
  32 C :   -0.090679
  33 S :    0.217722
  34 C :   -0.042311
  35 C :    0.038232
  36 C :   -0.065234
  37 C :   -0.101959
  38 C :    0.032109
  39 C :   -0.173763
  40 S :    0.168937
  41 C :   -0.060013
  42 C :   -0.064780
  43 C :   -0.055689
  44 S :    0.168652
  45 C :   -0.103618
  46 C :    0.034762
  47 C :   -0.077994
  48 C :   -0.043313
  49 C :    0.035479
  50 C :   -0.175020
  51 S :    0.216967
  52 C :   -0.090857
  53 C :   -0.060598
  54 C :    0.014009
  55 C :   -0.013023
  56 C :    0.013047
  57 C :   -0.013703
  58 C :    0.012326
  59 C :   -0.013003
  60 C :    0.012263
  61 C :   -0.012582
  62 F :   -0.181060
  63 F :   -0.186323
  64 F :   -0.186154
  65 F :   -0.181940
  66 C :   -0.084652
  67 S :    0.161441
  68 C :   -0.074279
  69 C :   -0.000536
  70 C :   -0.049001
  71 C :   -0.076622
  72 C :   -0.000916
  73 C :   -0.191286
  74 S :    0.148661
  75 C :   -0.082151
  76 C :   -0.049389
  77 C :    0.014801
  78 C :   -0.019096
  79 C :    0.036094
  80 C :   -0.019194
  81 H :    0.040507
  82 H :    0.045011
  83 H :    0.025736
  84 H :    0.039475
  85 H :    0.044253
  86 H :    0.026551
  87 H :    0.033891
  88 H :    0.007193
  89 H :    0.019741
  90 H :    0.033510
  91 H :    0.028510
  92 H :    0.035379
  93 H :    0.030120
  94 H :    0.043331
  95 H :    0.032190
  96 H :    0.032939
  97 H :    0.036176
  98 H :    0.027677
  99 H :    0.043413
 100 H :    0.030599
 101 H :    0.031779
 102 H :    0.037392
 103 H :    0.028674
 104 H :    0.043218
 105 H :    0.027068
 106 H :    0.026100
 107 H :    0.036553
 108 H :    0.030328
 109 H :    0.043681
 110 H :    0.031546
 111 H :    0.005821
 112 H :    0.012202
 113 H :    0.025995
 114 H :    0.030888
 115 H :    0.041808
 116 H :    0.036414
 117 H :    0.039900
 118 H :    0.024708
 119 H :    0.035777
 120 H :    0.028343
 121 H :    0.041609
 122 H :    0.031729
Sum of atomic charges:   -0.0000000

LOEWDIN ATOMIC CHARGES
----------------------
   0 C :    0.091162
   1 O :   -0.173144
   2 C :   -0.049193
   3 C :   -0.008457
   4 C :    0.073240
   5 C :    0.076113
   6 C :   -0.018159
   7 C :   -0.018881
   8 C :    0.082012
   9 C :   -0.155299
  10 C :   -0.014593
  11 N :   -0.062165
  12 C :   -0.015074
  13 N :   -0.058526
  14 C :   -0.139649
  15 C :    0.063731
  16 C :    0.091026
  17 O :   -0.173010
  18 C :   -0.049185
  19 C :   -0.007863
  20 C :    0.073250
  21 C :    0.075844
  22 C :   -0.018042
  23 C :   -0.018976
  24 C :    0.082162
  25 C :   -0.155633
  26 C :   -0.014022
  27 N :   -0.062964
  28 C :   -0.015230
  29 N :   -0.058500
  30 C :   -0.139815
  31 C :    0.063582
  32 C :   -0.196609
  33 S :    0.505126
  34 C :   -0.161841
  35 C :   -0.051275
  36 C :   -0.006611
  37 C :   -0.211873
  38 C :   -0.013717
  39 C :   -0.036258
  40 S :    0.436545
  41 C :   -0.163904
  42 C :   -0.064852
  43 C :   -0.163201
  44 S :    0.440416
  45 C :   -0.210495
  46 C :   -0.012832
  47 C :   -0.071944
  48 C :   -0.161238
  49 C :   -0.050925
  50 C :   -0.037122
  51 S :    0.502819
  52 C :   -0.196611
  53 C :   -0.006155
  54 C :   -0.016033
  55 C :   -0.059104
  56 C :   -0.015732
  57 C :   -0.060172
  58 C :   -0.016052
  59 C :   -0.060578
  60 C :   -0.016635
  61 C :   -0.059102
  62 F :   -0.049079
  63 F :   -0.051462
  64 F :   -0.051778
  65 F :   -0.049327
  66 C :   -0.189421
  67 S :    0.432344
  68 C :   -0.191753
  69 C :   -0.039016
  70 C :   -0.049561
  71 C :   -0.194358
  72 C :   -0.036144
  73 C :   -0.036405
  74 S :    0.436426
  75 C :   -0.183520
  76 C :   -0.053376
  77 C :   -0.017136
  78 C :   -0.057871
  79 C :   -0.011405
  80 C :   -0.061570
  81 H :    0.054712
  82 H :    0.053751
  83 H :    0.051720
  84 H :    0.054716
  85 H :    0.053603
  86 H :    0.051731
  87 H :    0.040192
  88 H :    0.030719
  89 H :    0.027421
  90 H :    0.040298
  91 H :    0.022709
  92 H :    0.032365
  93 H :    0.024021
  94 H :    0.033981
  95 H :    0.026075
  96 H :    0.024528
  97 H :    0.032492
  98 H :    0.023354
  99 H :    0.033947
 100 H :    0.025034
 101 H :    0.024393
 102 H :    0.032844
 103 H :    0.023335
 104 H :    0.033766
 105 H :    0.024004
 106 H :    0.021793
 107 H :    0.032566
 108 H :    0.023967
 109 H :    0.033946
 110 H :    0.026092
 111 H :    0.031648
 112 H :    0.031154
 113 H :    0.024830
 114 H :    0.023243
 115 H :    0.027660
 116 H :    0.028446
 117 H :    0.027838
 118 H :    0.023795
 119 H :    0.031433
 120 H :    0.022892
 121 H :    0.032749
 122 H :    0.024873

  Mayer bond orders larger than 0.100000
B(  0-C ,  1-O ) :   2.1223 B(  0-C ,  2-C ) :   0.9650 B(  0-C , 14-C ) :   0.9968
B(  2-C ,  3-C ) :   1.3462 B(  2-C ,  7-C ) :   1.3457 B(  3-C ,  4-C ) :   1.3256
B(  3-C , 81-H ) :   1.0160 B(  4-C ,  5-C ) :   1.2981 B(  4-C , 64-F ) :   1.0978
B(  5-C ,  6-C ) :   1.3460 B(  5-C , 65-F ) :   1.1119 B(  6-C ,  7-C ) :   1.3385
B(  6-C , 82-H ) :   0.9892 B(  7-C ,  8-C ) :   1.0105 B(  8-C ,  9-C ) :   1.6187
B(  8-C , 14-C ) :   1.1201 B(  9-C , 10-C ) :   1.1361 B(  9-C , 12-C ) :   1.1341
B( 10-C , 11-N ) :   2.9524 B( 12-C , 13-N ) :   2.9704 B( 14-C , 15-C ) :   1.4616
B( 15-C , 52-C ) :   1.3430 B( 15-C , 83-H ) :   0.9402 B( 16-C , 17-O ) :   2.1188
B( 16-C , 18-C ) :   0.9679 B( 16-C , 30-C ) :   0.9957 B( 18-C , 19-C ) :   1.3471
B( 18-C , 23-C ) :   1.3480 B( 19-C , 20-C ) :   1.3242 B( 19-C , 84-H ) :   1.0156
B( 20-C , 21-C ) :   1.2982 B( 20-C , 63-F ) :   1.0975 B( 21-C , 22-C ) :   1.3455
B( 21-C , 62-F ) :   1.1136 B( 22-C , 23-C ) :   1.3384 B( 22-C , 85-H ) :   0.9886
B( 23-C , 24-C ) :   1.0097 B( 24-C , 25-C ) :   1.6198 B( 24-C , 30-C ) :   1.1201
B( 25-C , 26-C ) :   1.1374 B( 25-C , 28-C ) :   1.1325 B( 26-C , 27-N ) :   2.9507
B( 28-C , 29-N ) :   2.9737 B( 30-C , 31-C ) :   1.4647 B( 31-C , 32-C ) :   1.3426
B( 31-C , 86-H ) :   0.9396 B( 32-C , 33-S ) :   1.0574 B( 32-C , 36-C ) :   1.3014
B( 33-S , 34-C ) :   1.1107 B( 34-C , 35-C ) :   1.4174 B( 34-C , 37-C ) :   1.2449
B( 35-C , 36-C ) :   1.4237 B( 35-C , 39-C ) :   0.9263 B( 36-C , 87-H ) :   1.0082
B( 37-C , 38-C ) :   1.5139 B( 37-C , 40-S ) :   1.0732 B( 38-C , 39-C ) :   0.9429
B( 38-C , 42-C ) :   1.3407 B( 39-C , 58-C ) :   1.0024 B( 39-C , 60-C ) :   1.0024
B( 40-S , 41-C ) :   1.1283 B( 41-C , 42-C ) :   1.4838 B( 41-C , 66-C ) :   1.1427
B( 42-C , 88-H ) :   0.9946 B( 43-C , 44-S ) :   1.1314 B( 43-C , 47-C ) :   1.4571
B( 43-C , 75-C ) :   1.1864 B( 44-S , 45-C ) :   1.0671 B( 45-C , 46-C ) :   1.5169
B( 45-C , 48-C ) :   1.2459 B( 46-C , 47-C ) :   1.3545 B( 46-C , 50-C ) :   0.9411
B( 47-C , 89-H ) :   0.9865 B( 48-C , 49-C ) :   1.4190 B( 48-C , 51-S ) :   1.1082
B( 49-C , 50-C ) :   0.9260 B( 49-C , 53-C ) :   1.4222 B( 50-C , 54-C ) :   1.0015
B( 50-C , 56-C ) :   1.0043 B( 51-S , 52-C ) :   1.0573 B( 52-C , 53-C ) :   1.2989
B( 53-C , 90-H ) :   1.0093 B( 54-C , 55-C ) :   1.0965 B( 54-C , 91-H ) :   0.9474
B( 54-C , 92-H ) :   0.9458 B( 55-C , 93-H ) :   0.9651 B( 55-C , 94-H ) :   0.9675
B( 55-C , 95-H ) :   0.9676 B( 56-C , 57-C ) :   1.0977 B( 56-C , 96-H ) :   0.9466
B( 56-C , 97-H ) :   0.9459 B( 57-C , 98-H ) :   0.9655 B( 57-C , 99-H ) :   0.9674
B( 57-C ,100-H ) :   0.9666 B( 58-C , 59-C ) :   1.0972 B( 58-C ,101-H ) :   0.9472
B( 58-C ,102-H ) :   0.9462 B( 59-C ,103-H ) :   0.9652 B( 59-C ,104-H ) :   0.9677
B( 59-C ,105-H ) :   0.9667 B( 60-C , 61-C ) :   1.0982 B( 60-C ,106-H ) :   0.9470
B( 60-C ,107-H ) :   0.9458 B( 61-C ,108-H ) :   0.9650 B( 61-C ,109-H ) :   0.9671
B( 61-C ,110-H ) :   0.9675 B( 66-C , 67-S ) :   1.1071 B( 66-C , 70-C ) :   1.4890
B( 67-S , 68-C ) :   1.0971 B( 68-C , 69-C ) :   1.5273 B( 68-C , 71-C ) :   1.2086
B( 69-C , 70-C ) :   1.3361 B( 69-C , 73-C ) :   0.9217 B( 70-C ,111-H ) :   0.9969
B( 71-C , 72-C ) :   1.5299 B( 71-C , 74-S ) :   1.0885 B( 72-C , 73-C ) :   0.9346
B( 72-C , 76-C ) :   1.3423 B( 73-C , 77-C ) :   1.0274 B( 73-C , 79-C ) :   1.0143
B( 74-S , 75-C ) :   1.1141 B( 75-C , 76-C ) :   1.4664 B( 76-C ,112-H ) :   0.9962
B( 77-C , 78-C ) :   1.0885 B( 77-C ,113-H ) :   0.9490 B( 77-C ,114-H ) :   0.9474
B( 78-C ,115-H ) :   0.9668 B( 78-C ,116-H ) :   0.9707 B( 78-C ,117-H ) :   0.9694
B( 79-C , 80-C ) :   1.0970 B( 79-C ,118-H ) :   0.9454 B( 79-C ,119-H ) :   0.9477
B( 80-C ,120-H ) :   0.9678 B( 80-C ,121-H ) :   0.9672 B( 80-C ,122-H ) :   0.9668

-----------------------------------------------------------------------------
         ABSORPTION SPECTRUM VIA TRANSITION ELECTRIC DIPOLE MOMENTS
-----------------------------------------------------------------------------
State   Energy  Wavelength   fosc         T2         TX        TY        TZ
        (cm-1)    (nm)                  (au**2)     (au)      (au)      (au)
-----------------------------------------------------------------------------
   0   16134.0    619.8   4.298589260  87.71230  -6.71635  -1.55181   6.33993
   1   22064.6    453.2   0.243210293   3.62878  -0.68806  -1.59564  -0.78057
   2   27468.4    364.1   0.038630633   0.46299   0.33884  -0.05404  -0.58759
   3   28351.3    352.7   0.007745151   0.08994  -0.13476  -0.23319  -0.13191
   4   29749.2    336.1   0.281055040   3.11022   0.49213  -0.53863  -1.60559
   5   30172.1    331.4   0.000780656   0.00852  -0.03060  -0.02222  -0.08419
   6   32273.1    309.9   0.048085754   0.49051   0.28517   0.47914   0.42381
   7   35321.0    283.1   0.016269426   0.15164   0.34561  -0.00029  -0.17942
   8   36404.3    274.7   0.752385693   6.80399  -1.13740  -1.79230  -1.51591
   9   37380.6    267.5   0.039701475   0.34965   0.28870  -0.19872  -0.47625
  10   37778.5    264.7   0.320220046   2.79048   0.78080   1.16590   0.90637
  11   38381.0    260.5   0.017436513   0.14956   0.11729   0.29059   0.22663
  12   39768.6    251.5   0.588647401   4.87293   1.69028   1.41000   0.16664
  13   39877.7    250.8   0.106751641   0.88129   0.68589   0.62939   0.12131

Dispersion correction           -0.075611954
FINAL SINGLE POINT ENERGY     -5656.011983178125

DIPOLE MOMENT
-------------
                                X             Y             Z
Electronic contribution:     36.06888      41.99908      17.42854
Nuclear contribution   :    -36.84674     -44.03089     -18.69506
                        -----------------------------------------
Total Dipole Moment    :     -0.77786      -2.03181      -1.26652
                        -----------------------------------------
Magnitude (a.u.)       :      2.51741
Magnitude (Debye)      :      6.39876

Rotational constants in cm-1:     0.001658     0.000128     0.000120
Rotational constants in MHz :    49.711723     3.852107     3.600204

                             ****ORCA TERMINATED NORMALLY****
TOTAL RUN TIME: 0 days 0 hours 13 minutes 43 seconds 516 msec
