                         Program Version 4.2.0 -  RELEASE  -
|  1> # ORCA input file
|  2> # SCF done       -150.645369218359          0.000996075538
|  3> ! wb97x-d3 def2-SVP def2/J RIJCOSX Grid4 TightSCF
|  4> %maxcore 5000
|  5> %tddft
|  6>     Mode sTDDFT
|  7>     Ethresh 5.0
|  8>     maxcore 5000
|  9> end
| 10>
| 11> %pal
| 12>   nprocs 6
| 13>   end
| 14> * xyz 0 1
| 15>    C       -5.54262        -3.84968        -0.86128
| 16>    O       -6.68965        -3.59357        -0.55742
| 17>    C       -5.03974        -5.17882        -1.25937
| 18>    C       -5.75016        -6.35462        -1.40352
| 19>    C       -5.06187        -7.49099        -1.80295
| 20>    C       -3.69760        -7.43469        -2.05052
| 21>    C       -2.98023        -6.25495        -1.90306
| 22>    C       -3.65768        -5.11408        -1.49991
| 23>    C       -3.20261        -3.74811        -1.24967
| 24>    C       -1.89372        -3.34418        -1.27207
| 25>    C       -1.40579        -2.05698        -0.95863
| 26>    N       -0.90972        -1.05024        -0.71321
| 27>    C       -0.80952        -4.19082        -1.59029
| 28>    N        0.12205        -4.81447        -1.83733
| 29>    C       -4.37188        -2.94325        -0.92554
| 30>    C       -4.33678        -1.58073        -0.80434
| 31>    C       -5.34086        -0.63682        -0.51143
| 32>    C       -6.67530        -0.73686        -0.15069
| 33>    C       -7.29020         0.49398         0.03479
| 34>    C       -6.45550         1.58016        -0.16916
| 35>    S       -4.86636         1.04851        -0.59177
| 36>    C       -6.77543         2.98492        -0.09264
| 37>    C       -5.75342         3.94282        -0.13834
| 38>    C       -6.02753         5.29399        -0.10579
| 39>    C       -7.35106         5.70480        -0.03178
| 40>    C       -8.38653         4.75550         0.02519
| 41>    C       -8.10989         3.41116        -0.00018
| 42>    C       -9.73294         5.43793         0.08826
| 43>    C      -10.62000         5.04474        -1.10753
| 44>    C       -9.96535         5.33792        -2.45203
| 45>    C      -10.46523         5.11173         1.40408
| 46>    C       -9.65072         5.46944         2.64134
| 47>    C       -9.33678         6.89465         0.02769
| 48>    C       -7.93828         7.02687        -0.02769
| 49>    C       -7.35647         8.28540        -0.08805
| 50>    C       -8.17569         9.39446        -0.11195
| 51>    C       -9.57223         9.27841        -0.07617
| 52>    C      -10.14915         8.00074         0.00622
| 53>    C      -10.39955        10.45785        -0.14793
| 54>    C      -11.78224        10.54082        -0.14054
| 55>    C      -12.27493        11.83255        -0.26450
| 56>    C      -11.28157        12.79287        -0.37226
| 57>    S       -9.70408        12.03404        -0.29784
| 58>    C      -11.29957        14.19627        -0.49538
| 59>    C      -12.32797        15.07536        -0.70060
| 60>    C      -12.14663        16.51769        -0.77195
| 61>    C      -11.04283        17.23347        -0.39015
| 62>    C      -10.94742        18.63986        -0.46579
| 63>    N      -10.79394        19.77671        -0.50720
| 64>    C       -9.85887        16.70523         0.16863
| 65>    N       -8.87198        16.37199         0.65316
| 66>    C      -13.39542        17.10067        -1.25702
| 67>    C      -13.74514        18.40434        -1.57456
| 68>    C      -15.03871        18.65526        -2.01273
| 69>    C      -15.97434        17.63770        -2.13495
| 70>    C      -15.63362        16.32932        -1.82368
| 71>    C      -14.34683        16.07624        -1.39009
| 72>    C      -13.74705        14.78149        -1.01223
| 73>    O      -14.32838        13.71630        -0.98978
| 74>    H       -6.81134        -6.37206        -1.20776
| 75>    H       -5.58927        -8.42515        -1.92428
| 76>    H       -3.17753        -8.32696        -2.36539
| 77>    H       -1.92221        -6.24313        -2.10614
| 78>    H       -3.37389        -1.11795        -0.98769
| 79>    H       -7.17152        -1.68239        -0.03437
| 80>    H       -8.32074         0.58976         0.32519
| 81>    H       -4.72880         3.60591        -0.20190
| 82>    H       -5.22575         6.01525        -0.14496
| 83>    H       -8.90912         2.68737         0.02707
| 84>    H      -10.84641         3.97877        -1.03946
| 85>    H      -11.56349         5.58979        -1.03720
| 86>    H       -9.03332         4.78659        -2.55485
| 87>    H      -10.62912         5.04527        -3.26209
| 88>    H       -9.74840         6.39918        -2.55143
| 89>    H      -11.41024         5.65855         1.42204
| 90>    H      -10.69707         4.04476         1.41881
| 91>    H       -9.42595         6.53354         2.66041
| 92>    H      -10.20939         5.22011         3.54036
| 93>    H       -8.71181         4.92040         2.65670
| 94>    H       -6.28372         8.39783        -0.12292
| 95>    H       -7.73816        10.38085        -0.16670
| 96>    H      -11.22124         7.89016         0.04209
| 97>    H      -12.42472         9.68418        -0.04793
| 98>    H      -13.32018        12.07850        -0.28290
| 99>    H      -10.30941        14.63404        -0.43702
|100>    H      -13.03981        19.21494        -1.49433
|101>    H      -15.31887        19.66736        -2.26368
|102>    H      -16.97250        17.86732        -2.47625
|103>    H      -16.34252        15.52051        -1.91328
|104> *
|105>
|106>                          ****END OF INPUT****

CARTESIAN COORDINATES (ANGSTROEM)
---------------------------------
  C     -5.542620   -3.849680   -0.861280
  O     -6.689650   -3.593570   -0.557420
  C     -5.039740   -5.178820   -1.259370
  C     -5.750160   -6.354620   -1.403520
  C     -5.061870   -7.490990   -1.802950
  C     -3.697600   -7.434690   -2.050520
  C     -2.980230   -6.254950   -1.903060
  C     -3.657680   -5.114080   -1.499910
  C     -3.202610   -3.748110   -1.249670
  C     -1.893720   -3.344180   -1.272070
  C     -1.405790   -2.056980   -0.958630
  N     -0.909720   -1.050240   -0.713210
  C     -0.809520   -4.190820   -1.590290
  N      0.122050   -4.814470   -1.837330
  C     -4.371880   -2.943250   -0.925540
  C     -4.336780   -1.580730   -0.804340
  C     -5.340860   -0.636820   -0.511430
  C     -6.675300   -0.736860   -0.150690
  C     -7.290200    0.493980    0.034790
  C     -6.455500    1.580160   -0.169160
  S     -4.866360    1.048510   -0.591770
  C     -6.775430    2.984920   -0.092640
  C     -5.753420    3.942820   -0.138340
  C     -6.027530    5.293990   -0.105790
  C     -7.351060    5.704800   -0.031780
  C     -8.386530    4.755500    0.025190
  C     -8.109890    3.411160   -0.000180
  C     -9.732940    5.437930    0.088260
  C    -10.620000    5.044740   -1.107530
  C     -9.965350    5.337920   -2.452030
  C    -10.465230    5.111730    1.404080
  C     -9.650720    5.469440    2.641340
  C     -9.336780    6.894650    0.027690
  C     -7.938280    7.026870   -0.027690
  C     -7.356470    8.285400   -0.088050
  C     -8.175690    9.394460   -0.111950
  C     -9.572230    9.278410   -0.076170
  C    -10.149150    8.000740    0.006220
  C    -10.399550   10.457850   -0.147930
  C    -11.782240   10.540820   -0.140540
  C    -12.274930   11.832550   -0.264500
  C    -11.281570   12.792870   -0.372260
  S     -9.704080   12.034040   -0.297840
  C    -11.299570   14.196270   -0.495380
  C    -12.327970   15.075360   -0.700600
  C    -12.146630   16.517690   -0.771950
  C    -11.042830   17.233470   -0.390150
  C    -10.947420   18.639860   -0.465790
  N    -10.793940   19.776710   -0.507200
  C     -9.858870   16.705230    0.168630
  N     -8.871980   16.371990    0.653160
  C    -13.395420   17.100670   -1.257020
  C    -13.745140   18.404340   -1.574560
  C    -15.038710   18.655260   -2.012730
  C    -15.974340   17.637700   -2.134950
  C    -15.633620   16.329320   -1.823680
  C    -14.346830   16.076240   -1.390090
  C    -13.747050   14.781490   -1.012230
  O    -14.328380   13.716300   -0.989780
  H     -6.811340   -6.372060   -1.207760
  H     -5.589270   -8.425150   -1.924280
  H     -3.177530   -8.326960   -2.365390
  H     -1.922210   -6.243130   -2.106140
  H     -3.373890   -1.117950   -0.987690
  H     -7.171520   -1.682390   -0.034370
  H     -8.320740    0.589760    0.325190
  H     -4.728800    3.605910   -0.201900
  H     -5.225750    6.015250   -0.144960
  H     -8.909120    2.687370    0.027070
  H    -10.846410    3.978770   -1.039460
  H    -11.563490    5.589790   -1.037200
  H     -9.033320    4.786590   -2.554850
  H    -10.629120    5.045270   -3.262090
  H     -9.748400    6.399180   -2.551430
  H    -11.410240    5.658550    1.422040
  H    -10.697070    4.044760    1.418810
  H     -9.425950    6.533540    2.660410
  H    -10.209390    5.220110    3.540360
  H     -8.711810    4.920400    2.656700
  H     -6.283720    8.397830   -0.122920
  H     -7.738160   10.380850   -0.166700
  H    -11.221240    7.890160    0.042090
  H    -12.424720    9.684180   -0.047930
  H    -13.320180   12.078500   -0.282900
  H    -10.309410   14.634040   -0.437020
  H    -13.039810   19.214940   -1.494330
  H    -15.318870   19.667360   -2.263680
  H    -16.972500   17.867320   -2.476250
  H    -16.342520   15.520510   -1.913280

 Total Charge           Charge          ....    0
 Multiplicity           Mult            ....    1
 Number of Electrons    NEL             ....  412
 Basis Dimension        Dim             ....  984

ORBITAL ENERGIES
----------------

  NO   OCC          E(Eh)            E(eV)
   0   2.0000     -88.992285     -2421.6032
   1   2.0000     -88.992089     -2421.5979
   2   2.0000     -19.254519      -523.9421
   3   2.0000     -19.254242      -523.9346
   4   2.0000     -14.449664      -393.1953
   5   2.0000     -14.449073      -393.1793
   6   2.0000     -14.445896      -393.0928
   7   2.0000     -14.445881      -393.0924
   8   2.0000     -10.403028      -283.0808
   9   2.0000     -10.402998      -283.0800
  10   2.0000     -10.376363      -282.3552
  11   2.0000     -10.376018      -282.3458
  12   2.0000     -10.374231      -282.2972
  13   2.0000     -10.374094      -282.2934
  14   2.0000     -10.359240      -281.8892
  15   2.0000     -10.359180      -281.8876
  16   2.0000     -10.358519      -281.8696
  17   2.0000     -10.358475      -281.8684
  18   2.0000     -10.350695      -281.6567
  19   2.0000     -10.350124      -281.6412
  20   2.0000     -10.347661      -281.5742
  21   2.0000     -10.347494      -281.5696
  22   2.0000     -10.347427      -281.5678
  23   2.0000     -10.347404      -281.5672
  24   2.0000     -10.338162      -281.3157
  25   2.0000     -10.338106      -281.3142
  26   2.0000     -10.333373      -281.1854
  27   2.0000     -10.333189      -281.1804
  28   2.0000     -10.331178      -281.1256
  29   2.0000     -10.331071      -281.1227
  30   2.0000     -10.326885      -281.0088
  31   2.0000     -10.326817      -281.0070
  32   2.0000     -10.326787      -281.0062
  33   2.0000     -10.326770      -281.0057
  34   2.0000     -10.326278      -280.9923
  35   2.0000     -10.326186      -280.9898
  36   2.0000     -10.325678      -280.9760
  37   2.0000     -10.325658      -280.9754
  38   2.0000     -10.323971      -280.9295
  39   2.0000     -10.323354      -280.9127
  40   2.0000     -10.323319      -280.9118
  41   2.0000     -10.320026      -280.8222
  42   2.0000     -10.319944      -280.8199
  43   2.0000     -10.319905      -280.8189
  44   2.0000     -10.319735      -280.8143
  45   2.0000     -10.318968      -280.7934
  46   2.0000     -10.318898      -280.7915
  47   2.0000     -10.318785      -280.7884
  48   2.0000     -10.318680      -280.7855
  49   2.0000     -10.318021      -280.7676
  50   2.0000     -10.317909      -280.7646
  51   2.0000     -10.317093      -280.7424
  52   2.0000     -10.317090      -280.7423
  53   2.0000     -10.316099      -280.7153
  54   2.0000     -10.316055      -280.7141
  55   2.0000     -10.305991      -280.4403
  56   2.0000     -10.305936      -280.4388
  57   2.0000     -10.285905      -279.8937
  58   2.0000     -10.285766      -279.8899
  59   2.0000      -8.106376      -220.5857
  60   2.0000      -8.106211      -220.5812
  61   2.0000      -6.065631      -165.0542
  62   2.0000      -6.065487      -165.0503
  63   2.0000      -6.061596      -164.9444
  64   2.0000      -6.061445      -164.9403
  65   2.0000      -6.059007      -164.8740
  66   2.0000      -6.058792      -164.8681
  67   2.0000      -1.171133       -31.8682
  68   2.0000      -1.171037       -31.8655
  69   2.0000      -1.055203       -28.7135
  70   2.0000      -1.054937       -28.7063
  71   2.0000      -1.043416       -28.3928
  72   2.0000      -1.038418       -28.2568
  73   2.0000      -1.033991       -28.1363
  74   2.0000      -1.033074       -28.1114
  75   2.0000      -1.031493       -28.0683
  76   2.0000      -1.028196       -27.9786
  77   2.0000      -1.027962       -27.9723
  78   2.0000      -0.995092       -27.0778
  79   2.0000      -0.986083       -26.8327
  80   2.0000      -0.984453       -26.7883
  81   2.0000      -0.967260       -26.3205
  82   2.0000      -0.943096       -25.6629
  83   2.0000      -0.941115       -25.6091
  84   2.0000      -0.933737       -25.4083
  85   2.0000      -0.927827       -25.2474
  86   2.0000      -0.916957       -24.9517
  87   2.0000      -0.896178       -24.3862
  88   2.0000      -0.895789       -24.3756
  89   2.0000      -0.891134       -24.2490
  90   2.0000      -0.889006       -24.1911
  91   2.0000      -0.885008       -24.0823
  92   2.0000      -0.881986       -24.0001
  93   2.0000      -0.876249       -23.8440
  94   2.0000      -0.873340       -23.7648
  95   2.0000      -0.861322       -23.4378
  96   2.0000      -0.840433       -22.8693
  97   2.0000      -0.816191       -22.2097
  98   2.0000      -0.807144       -21.9635
  99   2.0000      -0.804677       -21.8964
 100   2.0000      -0.802213       -21.8293
 101   2.0000      -0.799061       -21.7436
 102   2.0000      -0.778484       -21.1836
 103   2.0000      -0.758648       -20.6439
 104   2.0000      -0.748929       -20.3794
 105   2.0000      -0.737650       -20.0725
 106   2.0000      -0.732206       -19.9243
 107   2.0000      -0.729735       -19.8571
 108   2.0000      -0.724023       -19.7017
 109   2.0000      -0.719553       -19.5800
 110   2.0000      -0.718006       -19.5379
 111   2.0000      -0.716816       -19.5056
 112   2.0000      -0.711845       -19.3703
 113   2.0000      -0.695844       -18.9349
 114   2.0000      -0.686859       -18.6904
 115   2.0000      -0.684749       -18.6330
 116   2.0000      -0.679774       -18.4976
 117   2.0000      -0.668573       -18.1928
 118   2.0000      -0.658817       -17.9273
 119   2.0000      -0.650342       -17.6967
 120   2.0000      -0.646885       -17.6026
 121   2.0000      -0.645942       -17.5770
 122   2.0000      -0.643688       -17.5156
 123   2.0000      -0.641019       -17.4430
 124   2.0000      -0.631836       -17.1931
 125   2.0000      -0.609136       -16.5754
 126   2.0000      -0.608946       -16.5703
 127   2.0000      -0.603115       -16.4116
 128   2.0000      -0.591750       -16.1023
 129   2.0000      -0.588050       -16.0016
 130   2.0000      -0.584877       -15.9153
 131   2.0000      -0.581596       -15.8260
 132   2.0000      -0.580413       -15.7938
 133   2.0000      -0.576689       -15.6925
 134   2.0000      -0.573045       -15.5933
 135   2.0000      -0.572667       -15.5831
 136   2.0000      -0.569343       -15.4926
 137   2.0000      -0.566673       -15.4200
 138   2.0000      -0.563557       -15.3352
 139   2.0000      -0.562550       -15.3078
 140   2.0000      -0.562403       -15.3038
 141   2.0000      -0.559947       -15.2369
 142   2.0000      -0.558689       -15.2027
 143   2.0000      -0.557811       -15.1788
 144   2.0000      -0.553323       -15.0567
 145   2.0000      -0.549768       -14.9599
 146   2.0000      -0.537767       -14.6334
 147   2.0000      -0.536589       -14.6013
 148   2.0000      -0.534313       -14.5394
 149   2.0000      -0.532790       -14.4980
 150   2.0000      -0.529637       -14.4121
 151   2.0000      -0.529256       -14.4018
 152   2.0000      -0.523791       -14.2531
 153   2.0000      -0.522948       -14.2301
 154   2.0000      -0.515956       -14.0399
 155   2.0000      -0.515814       -14.0360
 156   2.0000      -0.511076       -13.9071
 157   2.0000      -0.507902       -13.8207
 158   2.0000      -0.500324       -13.6145
 159   2.0000      -0.499595       -13.5947
 160   2.0000      -0.495845       -13.4926
 161   2.0000      -0.495422       -13.4811
 162   2.0000      -0.488684       -13.2978
 163   2.0000      -0.488315       -13.2877
 164   2.0000      -0.488176       -13.2839
 165   2.0000      -0.487182       -13.2569
 166   2.0000      -0.482701       -13.1350
 167   2.0000      -0.480680       -13.0800
 168   2.0000      -0.480294       -13.0695
 169   2.0000      -0.478745       -13.0273
 170   2.0000      -0.478480       -13.0201
 171   2.0000      -0.474268       -12.9055
 172   2.0000      -0.474038       -12.8992
 173   2.0000      -0.468742       -12.7551
 174   2.0000      -0.467538       -12.7223
 175   2.0000      -0.464471       -12.6389
 176   2.0000      -0.459837       -12.5128
 177   2.0000      -0.459125       -12.4934
 178   2.0000      -0.458003       -12.4629
 179   2.0000      -0.456179       -12.4133
 180   2.0000      -0.455317       -12.3898
 181   2.0000      -0.451289       -12.2802
 182   2.0000      -0.450576       -12.2608
 183   2.0000      -0.450398       -12.2559
 184   2.0000      -0.446082       -12.1385
 185   2.0000      -0.437826       -11.9139
 186   2.0000      -0.437393       -11.9021
 187   2.0000      -0.436457       -11.8766
 188   2.0000      -0.428458       -11.6589
 189   2.0000      -0.427606       -11.6357
 190   2.0000      -0.423672       -11.5287
 191   2.0000      -0.412288       -11.2189
 192   2.0000      -0.389170       -10.5899
 193   2.0000      -0.375135       -10.2079
 194   2.0000      -0.374265       -10.1843
 195   2.0000      -0.372065       -10.1244
 196   2.0000      -0.371216       -10.1013
 197   2.0000      -0.370251       -10.0750
 198   2.0000      -0.368513       -10.0278
 199   2.0000      -0.364953        -9.9309
 200   2.0000      -0.357708        -9.7337
 201   2.0000      -0.356440        -9.6992
 202   2.0000      -0.347206        -9.4480
 203   2.0000      -0.337592        -9.1863
 204   2.0000      -0.309113        -8.4114
 205   2.0000      -0.284857        -7.7513
 206   0.0000      -0.071129        -1.9355
 207   0.0000      -0.063051        -1.7157
 208   0.0000      -0.037964        -1.0331
 209   0.0000      -0.034386        -0.9357
 210   0.0000      -0.006150        -0.1674

MULLIKEN ATOMIC CHARGES
-----------------------
   0 C :    0.225145
   1 O :   -0.184106
   2 C :   -0.065797
   3 C :   -0.025320
   4 C :    0.015002
   5 C :    0.014854
   6 C :   -0.033827
   7 C :    0.011155
   8 C :    0.280410
   9 C :   -0.378605
  10 C :   -0.130641
  11 N :    0.107697
  12 C :   -0.128589
  13 N :    0.104074
  14 C :   -0.132170
  15 C :    0.079627
  16 C :   -0.147769
  17 C :    0.040570
  18 C :   -0.024958
  19 C :   -0.066542
  20 S :    0.132624
  21 C :    0.112994
  22 C :   -0.044514
  23 C :   -0.044810
  24 C :    0.079886
  25 C :    0.008165
  26 C :   -0.083982
  27 C :   -0.234107
  28 C :    0.031918
  29 C :   -0.016665
  30 C :    0.036632
  31 C :   -0.019352
  32 C :    0.005959
  33 C :    0.079477
  34 C :   -0.045418
  35 C :   -0.044412
  36 C :    0.116467
  37 C :   -0.082795
  38 C :   -0.061744
  39 C :   -0.031979
  40 C :    0.047619
  41 C :   -0.147519
  42 S :    0.129201
  43 C :    0.077649
  44 C :   -0.132522
  45 C :    0.274197
  46 C :   -0.375491
  47 C :   -0.129113
  48 N :    0.103493
  49 C :   -0.136436
  50 N :    0.111238
  51 C :    0.012525
  52 C :   -0.033127
  53 C :    0.013637
  54 C :    0.015055
  55 C :   -0.027109
  56 C :   -0.065360
  57 C :    0.227208
  58 O :   -0.185740
  59 H :    0.025587
  60 H :    0.029781
  61 H :    0.030071
  62 H :    0.031814
  63 H :    0.028755
  64 H :    0.045408
  65 H :    0.017047
  66 H :    0.021796
  67 H :    0.003640
  68 H :   -0.013733
  69 H :    0.022307
  70 H :    0.021016
  71 H :    0.040043
  72 H :    0.035908
  73 H :    0.040301
  74 H :    0.021874
  75 H :    0.021778
  76 H :    0.041344
  77 H :    0.035550
  78 H :    0.040282
  79 H :    0.003545
  80 H :    0.021692
  81 H :   -0.015438
  82 H :    0.016861
  83 H :    0.045705
  84 H :    0.034475
  85 H :    0.032549
  86 H :    0.030461
  87 H :    0.029719
  88 H :    0.025901
Sum of atomic charges:    0.0000000

LOEWDIN ATOMIC CHARGES
----------------------
   0 C :    0.096694
   1 O :   -0.145606
   2 C :   -0.048744
   3 C :    0.011919
   4 C :   -0.004582
   5 C :   -0.001587
   6 C :    0.001586
   7 C :   -0.019041
   8 C :    0.081341
   9 C :   -0.147177
  10 C :   -0.019122
  11 N :   -0.053446
  12 C :   -0.012489
  13 N :   -0.056535
  14 C :   -0.110578
  15 C :    0.058308
  16 C :   -0.192615
  17 C :    0.000597
  18 C :   -0.066555
  19 C :   -0.132769
  20 S :    0.456833
  21 C :   -0.044412
  22 C :   -0.018315
  23 C :   -0.011883
  24 C :   -0.015082
  25 C :    0.004675
  26 C :   -0.010382
  27 C :   -0.041719
  28 C :   -0.015310
  29 C :   -0.059792
  30 C :   -0.014399
  31 C :   -0.059834
  32 C :    0.004697
  33 C :   -0.014983
  34 C :   -0.012197
  35 C :   -0.017915
  36 C :   -0.043932
  37 C :   -0.010185
  38 C :   -0.132447
  39 C :   -0.066362
  40 C :    0.001133
  41 C :   -0.192624
  42 S :    0.455156
  43 C :    0.058346
  44 C :   -0.109987
  45 C :    0.080788
  46 C :   -0.147031
  47 C :   -0.012600
  48 N :   -0.056510
  49 C :   -0.019747
  50 N :   -0.053183
  51 C :   -0.019114
  52 C :    0.001586
  53 C :   -0.001613
  54 C :   -0.004707
  55 C :    0.011827
  56 C :   -0.048602
  57 C :    0.096816
  58 O :   -0.145712
  59 H :    0.042376
  60 H :    0.037517
  61 H :    0.039226
  62 H :    0.042080
  63 H :    0.044339
  64 H :    0.038110
  65 H :    0.033853
  66 H :    0.026300
  67 H :    0.034128
  68 H :    0.027932
  69 H :    0.022750
  70 H :    0.022470
  71 H :    0.027363
  72 H :    0.028511
  73 H :    0.027294
  74 H :    0.022775
  75 H :    0.022703
  76 H :    0.027654
  77 H :    0.028519
  78 H :    0.027324
  79 H :    0.034183
  80 H :    0.025641
  81 H :    0.027683
  82 H :    0.033653
  83 H :    0.038386
  84 H :    0.045046
  85 H :    0.042180
  86 H :    0.039234
  87 H :    0.037503
  88 H :    0.042392

  Mayer bond orders larger than 0.100000
B(  0-C ,  1-O ) :   2.1551 B(  0-C ,  2-C ) :   0.9624 B(  0-C , 14-C ) :   0.9427
B(  2-C ,  3-C ) :   1.4046 B(  2-C ,  7-C ) :   1.3342 B(  3-C ,  4-C ) :   1.3605
B(  3-C , 59-H ) :   1.0039 B(  4-C ,  5-C ) :   1.3859 B(  4-C , 60-H ) :   0.9906
B(  5-C ,  6-C ) :   1.3899 B(  5-C , 61-H ) :   0.9856 B(  6-C ,  7-C ) :   1.3893
B(  6-C , 62-H ) :   0.9829 B(  7-C ,  8-C ) :   1.0018 B(  8-C ,  9-C ) :   1.6410
B(  8-C , 14-C ) :   1.0858 B(  9-C , 10-C ) :   1.1254 B(  9-C , 12-C ) :   1.1325
B( 10-C , 11-N ) :   2.9684 B( 12-C , 13-N ) :   2.9715 B( 14-C , 15-C ) :   1.6303
B( 15-C , 16-C ) :   1.2242 B( 15-C , 63-H ) :   0.9130 B( 16-C , 17-C ) :   1.4342
B( 16-C , 20-S ) :   1.1023 B( 17-C , 18-C ) :   1.3065 B( 17-C , 64-H ) :   0.9780
B( 18-C , 19-C ) :   1.4711 B( 18-C , 65-H ) :   0.9921 B( 19-C , 20-S ) :   1.1816
B( 19-C , 21-C ) :   1.0574 B( 21-C , 22-C ) :   1.3397 B( 21-C , 26-C ) :   1.3300
B( 22-C , 23-C ) :   1.4223 B( 22-C , 66-H ) :   0.9830 B( 23-C , 24-C ) :   1.3609
B( 23-C , 67-H ) :   0.9920 B( 24-C , 25-C ) :   1.3654 B( 24-C , 33-C ) :   1.0065
B( 25-C , 26-C ) :   1.4347 B( 25-C , 27-C ) :   0.9139 B( 26-C , 68-H ) :   1.0014
B( 27-C , 28-C ) :   1.0390 B( 27-C , 30-C ) :   1.0328 B( 27-C , 32-C ) :   0.9134
B( 28-C , 29-C ) :   1.0893 B( 28-C , 69-H ) :   0.9457 B( 28-C , 70-H ) :   0.9454
B( 29-C , 71-H ) :   0.9666 B( 29-C , 72-H ) :   0.9701 B( 29-C , 73-H ) :   0.9668
B( 30-C , 31-C ) :   1.0881 B( 30-C , 74-H ) :   0.9466 B( 30-C , 75-H ) :   0.9467
B( 31-C , 76-H ) :   0.9671 B( 31-C , 77-H ) :   0.9702 B( 31-C , 78-H ) :   0.9668
B( 32-C , 33-C ) :   1.3688 B( 32-C , 37-C ) :   1.4345 B( 33-C , 34-C ) :   1.3605
B( 34-C , 35-C ) :   1.4216 B( 34-C , 79-H ) :   0.9922 B( 35-C , 36-C ) :   1.3420
B( 35-C , 80-H ) :   0.9822 B( 36-C , 37-C ) :   1.3281 B( 36-C , 38-C ) :   1.0630
B( 37-C , 81-H ) :   1.0013 B( 38-C , 39-C ) :   1.4706 B( 38-C , 42-S ) :   1.1787
B( 39-C , 40-C ) :   1.3093 B( 39-C , 82-H ) :   0.9921 B( 40-C , 41-C ) :   1.4346
B( 40-C , 83-H ) :   0.9774 B( 41-C , 42-S ) :   1.1012 B( 41-C , 43-C ) :   1.2209
B( 43-C , 44-C ) :   1.6278 B( 43-C , 84-H ) :   0.9183 B( 44-C , 45-C ) :   1.0856
B( 44-C , 57-C ) :   0.9441 B( 45-C , 46-C ) :   1.6428 B( 45-C , 51-C ) :   1.0028
B( 46-C , 47-C ) :   1.1312 B( 46-C , 49-C ) :   1.1268 B( 47-C , 48-N ) :   2.9741
B( 49-C , 50-N ) :   2.9784 B( 51-C , 52-C ) :   1.3874 B( 51-C , 56-C ) :   1.3345
B( 52-C , 53-C ) :   1.3894 B( 52-C , 85-H ) :   0.9841 B( 53-C , 54-C ) :   1.3872
B( 53-C , 86-H ) :   0.9858 B( 54-C , 55-C ) :   1.3588 B( 54-C , 87-H ) :   0.9906
B( 55-C , 56-C ) :   1.4046 B( 55-C , 88-H ) :   1.0047 B( 56-C , 57-C ) :   0.9616
B( 57-C , 58-O ) :   2.1540

-----------------------------------------------------------------------------
         ABSORPTION SPECTRUM VIA TRANSITION ELECTRIC DIPOLE MOMENTS
-----------------------------------------------------------------------------
State   Energy  Wavelength   fosc         T2         TX        TY        TZ
        (cm-1)    (nm)                  (au**2)     (au)      (au)      (au)
-----------------------------------------------------------------------------
   0   21877.1    457.1   3.482556479  52.40629  -2.92518   6.61857   0.21025
   1   26409.4    378.7   0.136557624   1.70228  -1.11903  -0.40639   0.53377
   2   31547.9    317.0   0.032949820   0.34384   0.22834  -0.53123   0.09744
   3   32969.2    303.3   0.003102691   0.03098   0.12523   0.11648  -0.04162
   4   34383.6    290.8   0.111028060   1.06306  -0.34441   0.90190  -0.36195
   5   36250.2    275.9   0.698624381   6.34466   2.20299   1.00854   0.68871
   6   38185.5    261.9   0.545036018   4.69896  -1.89627  -0.87633  -0.57893
   7   39265.6    254.7   0.199665410   1.67404   0.33996  -1.24836   0.00823
   8   39793.6    251.3   0.100608839   0.83234  -0.40657   0.67252  -0.46341

Dispersion correction           -0.050166804
FINAL SINGLE POINT ENERGY     -3124.661264264249

DIPOLE MOMENT
-------------
                                X             Y             Z
Electronic contribution:     26.25370      11.98449      -2.99629
Nuclear contribution   :    -29.98150     -13.70803       2.26588
                        -----------------------------------------
Total Dipole Moment    :     -3.72780      -1.72355      -0.73041
                        -----------------------------------------
Magnitude (a.u.)       :      4.17140
Magnitude (Debye)      :     10.60286

Rotational constants in cm-1:     0.005283     0.000268     0.000260
Rotational constants in MHz :   158.389335     8.035551     7.790752

                             ****ORCA TERMINATED NORMALLY****
TOTAL RUN TIME: 0 days 0 hours 6 minutes 54 seconds 394 msec
