                         Program Version 4.2.0 -  RELEASE  -
|  1> # ORCA input file
|  2> # SCF done       -160.174526755940          0.000544657073
|  3> ! wb97x-d3 def2-SVP def2/J RIJCOSX Grid4 TightSCF
|  4> %maxcore 5000
|  5> %tddft
|  6>     Mode sTDDFT
|  7>     Ethresh 5.0
|  8>     maxcore 5000
|  9> end
| 10>
| 11> %pal
| 12>   nprocs 6
| 13>   end
| 14> * xyz 0 1
| 15>    C       -3.08125        -2.53362        -0.89305
| 16>    C       -3.19080        -2.37790        -2.25149
| 17>    C       -2.12619        -2.09001        -3.23768
| 18>    C       -2.82660        -1.73587        -4.48790
| 19>    C       -4.21353        -1.86309        -4.30946
| 20>    C       -4.46679        -2.32371        -2.94563
| 21>    O       -0.91966        -2.11532        -3.09290
| 22>    C       -5.69464        -2.68660        -2.45621
| 23>    C       -5.95648        -3.22182        -1.17676
| 24>    C       -6.89455        -2.60818        -3.19480
| 25>    N       -6.26252        -3.68008        -0.16852
| 26>    N       -7.90921        -2.56602        -3.73035
| 27>    C       -2.28130        -1.32349        -5.68769
| 28>    C       -3.14549        -1.02498        -6.73148
| 29>    C       -4.51768        -1.13942        -6.56144
| 30>    C       -5.06853        -1.55858        -5.35728
| 31>    C        2.73082        -0.73034         9.88267
| 32>    C        3.62581        -0.25096        10.84554
| 33>    C        4.95921         0.06462        10.74974
| 34>    C        5.80062        -0.10815         9.56078
| 35>    C        7.14617         0.35936         9.94054
| 36>    C        7.12755         0.79443        11.27710
| 37>    C        5.77350         0.62796        11.80809
| 38>    O        5.47257        -0.55206         8.47360
| 39>    C        5.37598         0.97719        13.07315
| 40>    C        4.07361         0.84672        13.59808
| 41>    C        6.22948         1.53884        14.04619
| 42>    N        3.04389         0.78063        14.10375
| 43>    N        6.86166         1.99918        14.88686
| 44>    C        8.29473         0.40288         9.17584
| 45>    C        9.45315         0.89403         9.76187
| 46>    C        9.44473         1.32504        11.08017
| 47>    C        8.29031         1.28177        11.85211
| 48>    C        1.37115        -0.93427        10.16731
| 49>    C        0.65143        -1.33109         9.06395
| 50>    C        1.44670        -1.45065         7.91967
| 51>    S        3.09084        -1.07972         8.19819
| 52>    C       -0.78365        -1.63688         8.73830
| 53>    C       -0.68925        -1.89278         7.24816
| 54>    C        0.63136        -1.80049         6.79878
| 55>    C       -1.70350        -0.44343         9.05470
| 56>    C       -1.28100        -2.88641         9.49094
| 57>    C       -1.28962         0.83379         8.33381
| 58>    C       -0.42666        -4.12060         9.22844
| 59>    C       -1.72206        -2.16732         6.35809
| 60>    C       -1.43503        -2.32215         5.02206
| 61>    C       -0.11447        -2.24227         4.54198
| 62>    C        0.96415        -2.00191         5.44001
| 63>    C        0.21595        -2.38450         3.17419
| 64>    C        1.54241        -2.37161         2.72934
| 65>    C        2.57743        -2.14636         3.63326
| 66>    C        2.28687        -1.95378         4.96325
| 67>    C       -0.61649        -2.49621         2.01990
| 68>    C        0.16081        -2.55596         0.86224
| 69>    C        1.62395        -2.55083         1.22292
| 70>    C        2.20014        -3.93253         0.83926
| 71>    C        2.38560        -1.36318         0.60436
| 72>    C        2.53659        -1.40182        -0.91097
| 73>    C        3.66108        -4.16066         1.20253
| 74>    S       -2.29014        -2.50709         1.68466
| 75>    C       -1.95951        -2.56945        -0.04956
| 76>    C       -0.59059        -2.62198        -0.29688
| 77>    H       -4.01787        -2.58945        -0.34995
| 78>    H       -1.21067        -1.23900        -5.79418
| 79>    H       -2.74962        -0.69915        -7.68173
| 80>    H       -5.17666        -0.89693        -7.38155
| 81>    H       -6.13858        -1.63322        -5.25463
| 82>    H        3.15881        -0.09130        11.80997
| 83>    H        8.27662         0.06210         8.15199
| 84>    H       10.36706         0.94198         9.18918
| 85>    H       10.35432         1.70434        11.52113
| 86>    H        8.31653         1.62367        12.87363
| 87>    H        0.96905        -0.76872        11.15136
| 88>    H       -2.72462        -0.70489         8.77068
| 89>    H       -1.68920        -0.27302        10.13301
| 90>    H       -1.28245        -2.66621        10.56033
| 91>    H       -2.31040        -3.08758         9.18804
| 92>    H       -1.31296         0.69312         7.25538
| 93>    H       -1.96961         1.64245         8.59022
| 94>    H       -0.28283         1.12987         8.61941
| 95>    H        0.60132        -3.95333         9.54171
| 96>    H       -0.81965        -4.96904         9.78337
| 97>    H       -0.42627        -4.37220         8.17016
| 98>    H       -2.74051        -2.24382         6.70771
| 99>    H       -2.23161        -2.51609         4.31936
|100>    H        3.60130        -2.09609         3.29787
|101>    H        3.08310        -1.75870         5.66582
|102>    H        1.59103        -4.69321         1.33538
|103>    H        2.06855        -4.06042        -0.23617
|104>    H        1.85435        -0.45006         0.88643
|105>    H        3.37541        -1.31561         1.06085
|106>    H        1.57051        -1.39785        -1.40591
|107>    H        3.08434        -0.52031        -1.23758
|108>    H        3.09099        -2.27917        -1.23218
|109>    H        3.80188        -4.14702         2.27975
|110>    H        3.97271        -5.13630         0.83543
|111>    H        4.30492        -3.41051         0.75168
|112>    H       -0.20425        -2.69721        -1.29518
|113> *
|114>
|115>                          ****END OF INPUT****

CARTESIAN COORDINATES (ANGSTROEM)
---------------------------------
  C     -3.081250   -2.533620   -0.893050
  C     -3.190800   -2.377900   -2.251490
  C     -2.126190   -2.090010   -3.237680
  C     -2.826600   -1.735870   -4.487900
  C     -4.213530   -1.863090   -4.309460
  C     -4.466790   -2.323710   -2.945630
  O     -0.919660   -2.115320   -3.092900
  C     -5.694640   -2.686600   -2.456210
  C     -5.956480   -3.221820   -1.176760
  C     -6.894550   -2.608180   -3.194800
  N     -6.262520   -3.680080   -0.168520
  N     -7.909210   -2.566020   -3.730350
  C     -2.281300   -1.323490   -5.687690
  C     -3.145490   -1.024980   -6.731480
  C     -4.517680   -1.139420   -6.561440
  C     -5.068530   -1.558580   -5.357280
  C      2.730820   -0.730340    9.882670
  C      3.625810   -0.250960   10.845540
  C      4.959210    0.064620   10.749740
  C      5.800620   -0.108150    9.560780
  C      7.146170    0.359360    9.940540
  C      7.127550    0.794430   11.277100
  C      5.773500    0.627960   11.808090
  O      5.472570   -0.552060    8.473600
  C      5.375980    0.977190   13.073150
  C      4.073610    0.846720   13.598080
  C      6.229480    1.538840   14.046190
  N      3.043890    0.780630   14.103750
  N      6.861660    1.999180   14.886860
  C      8.294730    0.402880    9.175840
  C      9.453150    0.894030    9.761870
  C      9.444730    1.325040   11.080170
  C      8.290310    1.281770   11.852110
  C      1.371150   -0.934270   10.167310
  C      0.651430   -1.331090    9.063950
  C      1.446700   -1.450650    7.919670
  S      3.090840   -1.079720    8.198190
  C     -0.783650   -1.636880    8.738300
  C     -0.689250   -1.892780    7.248160
  C      0.631360   -1.800490    6.798780
  C     -1.703500   -0.443430    9.054700
  C     -1.281000   -2.886410    9.490940
  C     -1.289620    0.833790    8.333810
  C     -0.426660   -4.120600    9.228440
  C     -1.722060   -2.167320    6.358090
  C     -1.435030   -2.322150    5.022060
  C     -0.114470   -2.242270    4.541980
  C      0.964150   -2.001910    5.440010
  C      0.215950   -2.384500    3.174190
  C      1.542410   -2.371610    2.729340
  C      2.577430   -2.146360    3.633260
  C      2.286870   -1.953780    4.963250
  C     -0.616490   -2.496210    2.019900
  C      0.160810   -2.555960    0.862240
  C      1.623950   -2.550830    1.222920
  C      2.200140   -3.932530    0.839260
  C      2.385600   -1.363180    0.604360
  C      2.536590   -1.401820   -0.910970
  C      3.661080   -4.160660    1.202530
  S     -2.290140   -2.507090    1.684660
  C     -1.959510   -2.569450   -0.049560
  C     -0.590590   -2.621980   -0.296880
  H     -4.017870   -2.589450   -0.349950
  H     -1.210670   -1.239000   -5.794180
  H     -2.749620   -0.699150   -7.681730
  H     -5.176660   -0.896930   -7.381550
  H     -6.138580   -1.633220   -5.254630
  H      3.158810   -0.091300   11.809970
  H      8.276620    0.062100    8.151990
  H     10.367060    0.941980    9.189180
  H     10.354320    1.704340   11.521130
  H      8.316530    1.623670   12.873630
  H      0.969050   -0.768720   11.151360
  H     -2.724620   -0.704890    8.770680
  H     -1.689200   -0.273020   10.133010
  H     -1.282450   -2.666210   10.560330
  H     -2.310400   -3.087580    9.188040
  H     -1.312960    0.693120    7.255380
  H     -1.969610    1.642450    8.590220
  H     -0.282830    1.129870    8.619410
  H      0.601320   -3.953330    9.541710
  H     -0.819650   -4.969040    9.783370
  H     -0.426270   -4.372200    8.170160
  H     -2.740510   -2.243820    6.707710
  H     -2.231610   -2.516090    4.319360
  H      3.601300   -2.096090    3.297870
  H      3.083100   -1.758700    5.665820
  H      1.591030   -4.693210    1.335380
  H      2.068550   -4.060420   -0.236170
  H      1.854350   -0.450060    0.886430
  H      3.375410   -1.315610    1.060850
  H      1.570510   -1.397850   -1.405910
  H      3.084340   -0.520310   -1.237580
  H      3.090990   -2.279170   -1.232180
  H      3.801880   -4.147020    2.279750
  H      3.972710   -5.136300    0.835430
  H      4.304920   -3.410510    0.751680
  H     -0.204250   -2.697210   -1.295180

 Total Charge           Charge          ....    0
 Multiplicity           Mult            ....    1
 Number of Electrons    NEL             ....  436
 Basis Dimension        Dim             .... 1056

ORBITAL ENERGIES
----------------

  NO   OCC          E(Eh)            E(eV)
   0   2.0000     -88.997421     -2421.7429
   1   2.0000     -88.993052     -2421.6241
   2   2.0000     -19.254144      -523.9319
   3   2.0000     -19.253287      -523.9086
   4   2.0000     -14.449388      -393.1878
   5   2.0000     -14.447410      -393.1340
   6   2.0000     -14.444246      -393.0479
   7   2.0000     -14.443975      -393.0405
   8   2.0000     -10.401893      -283.0499
   9   2.0000     -10.400205      -283.0040
  10   2.0000     -10.374712      -282.3103
  11   2.0000     -10.374067      -282.2927
  12   2.0000     -10.371549      -282.2242
  13   2.0000     -10.371417      -282.2206
  14   2.0000     -10.356841      -281.8240
  15   2.0000     -10.356017      -281.8015
  16   2.0000     -10.350833      -281.6605
  17   2.0000     -10.350743      -281.6580
  18   2.0000     -10.348758      -281.6040
  19   2.0000     -10.347650      -281.5739
  20   2.0000     -10.347610      -281.5728
  21   2.0000     -10.346069      -281.5308
  22   2.0000     -10.345694      -281.5207
  23   2.0000     -10.341358      -281.4026
  24   2.0000     -10.336914      -281.2817
  25   2.0000     -10.336513      -281.2708
  26   2.0000     -10.329526      -281.0807
  27   2.0000     -10.329469      -281.0791
  28   2.0000     -10.327951      -281.0378
  29   2.0000     -10.327873      -281.0357
  30   2.0000     -10.327005      -281.0121
  31   2.0000     -10.326750      -281.0052
  32   2.0000     -10.326206      -280.9904
  33   2.0000     -10.326154      -280.9889
  34   2.0000     -10.325714      -280.9770
  35   2.0000     -10.325636      -280.9748
  36   2.0000     -10.325553      -280.9726
  37   2.0000     -10.325473      -280.9704
  38   2.0000     -10.325314      -280.9661
  39   2.0000     -10.325051      -280.9589
  40   2.0000     -10.324777      -280.9515
  41   2.0000     -10.324640      -280.9477
  42   2.0000     -10.324327      -280.9392
  43   2.0000     -10.322544      -280.8907
  44   2.0000     -10.322389      -280.8865
  45   2.0000     -10.321865      -280.8722
  46   2.0000     -10.321399      -280.8596
  47   2.0000     -10.321225      -280.8548
  48   2.0000     -10.321039      -280.8498
  49   2.0000     -10.318739      -280.7872
  50   2.0000     -10.318474      -280.7800
  51   2.0000     -10.317595      -280.7560
  52   2.0000     -10.314717      -280.6777
  53   2.0000     -10.312229      -280.6100
  54   2.0000     -10.306438      -280.4524
  55   2.0000     -10.305471      -280.4261
  56   2.0000     -10.305151      -280.4174
  57   2.0000     -10.305103      -280.4161
  58   2.0000     -10.292104      -280.0624
  59   2.0000     -10.288354      -279.9604
  60   2.0000     -10.285092      -279.8716
  61   2.0000     -10.284975      -279.8684
  62   2.0000      -8.110622      -220.7013
  63   2.0000      -8.104073      -220.5230
  64   2.0000      -6.069971      -165.1723
  65   2.0000      -6.066015      -165.0647
  66   2.0000      -6.063707      -165.0019
  67   2.0000      -6.063125      -164.9860
  68   2.0000      -6.059081      -164.8760
  69   2.0000      -6.056677      -164.8106
  70   2.0000      -1.171268       -31.8718
  71   2.0000      -1.169544       -31.8249
  72   2.0000      -1.056462       -28.7478
  73   2.0000      -1.053856       -28.6769
  74   2.0000      -1.052892       -28.6506
  75   2.0000      -1.049757       -28.5653
  76   2.0000      -1.032813       -28.1043
  77   2.0000      -1.031760       -28.0756
  78   2.0000      -1.027241       -27.9526
  79   2.0000      -1.026471       -27.9317
  80   2.0000      -1.016063       -27.6485
  81   2.0000      -0.998837       -27.1797
  82   2.0000      -0.984915       -26.8009
  83   2.0000      -0.982200       -26.7270
  84   2.0000      -0.972805       -26.4714
  85   2.0000      -0.944231       -25.6938
  86   2.0000      -0.938458       -25.5367
  87   2.0000      -0.937195       -25.5024
  88   2.0000      -0.932823       -25.3834
  89   2.0000      -0.926064       -25.1995
  90   2.0000      -0.912033       -24.8177
  91   2.0000      -0.896963       -24.4076
  92   2.0000      -0.894712       -24.3463
  93   2.0000      -0.893873       -24.3235
  94   2.0000      -0.881061       -23.9749
  95   2.0000      -0.880462       -23.9586
  96   2.0000      -0.877770       -23.8853
  97   2.0000      -0.876096       -23.8398
  98   2.0000      -0.875000       -23.8100
  99   2.0000      -0.855622       -23.2827
 100   2.0000      -0.844837       -22.9892
 101   2.0000      -0.824249       -22.4289
 102   2.0000      -0.807498       -21.9731
 103   2.0000      -0.803434       -21.8626
 104   2.0000      -0.800850       -21.7922
 105   2.0000      -0.799848       -21.7650
 106   2.0000      -0.796786       -21.6816
 107   2.0000      -0.765134       -20.8203
 108   2.0000      -0.754644       -20.5349
 109   2.0000      -0.753867       -20.5138
 110   2.0000      -0.742496       -20.2043
 111   2.0000      -0.733063       -19.9476
 112   2.0000      -0.730890       -19.8885
 113   2.0000      -0.727716       -19.8022
 114   2.0000      -0.720047       -19.5935
 115   2.0000      -0.717089       -19.5130
 116   2.0000      -0.715996       -19.4832
 117   2.0000      -0.714333       -19.4380
 118   2.0000      -0.700143       -19.0519
 119   2.0000      -0.690506       -18.7896
 120   2.0000      -0.684249       -18.6194
 121   2.0000      -0.677344       -18.4315
 122   2.0000      -0.667692       -18.1688
 123   2.0000      -0.666021       -18.1234
 124   2.0000      -0.655337       -17.8326
 125   2.0000      -0.649346       -17.6696
 126   2.0000      -0.646022       -17.5792
 127   2.0000      -0.644692       -17.5430
 128   2.0000      -0.635592       -17.2953
 129   2.0000      -0.625196       -17.0125
 130   2.0000      -0.621443       -16.9103
 131   2.0000      -0.615765       -16.7558
 132   2.0000      -0.604055       -16.4372
 133   2.0000      -0.598962       -16.2986
 134   2.0000      -0.595806       -16.2127
 135   2.0000      -0.592870       -16.1328
 136   2.0000      -0.589739       -16.0476
 137   2.0000      -0.584733       -15.9114
 138   2.0000      -0.580742       -15.8028
 139   2.0000      -0.577665       -15.7191
 140   2.0000      -0.575134       -15.6502
 141   2.0000      -0.572951       -15.5908
 142   2.0000      -0.570867       -15.5341
 143   2.0000      -0.567699       -15.4479
 144   2.0000      -0.566242       -15.4082
 145   2.0000      -0.562327       -15.3017
 146   2.0000      -0.561196       -15.2709
 147   2.0000      -0.558804       -15.2058
 148   2.0000      -0.558320       -15.1927
 149   2.0000      -0.556445       -15.1416
 150   2.0000      -0.551016       -14.9939
 151   2.0000      -0.550818       -14.9885
 152   2.0000      -0.543597       -14.7920
 153   2.0000      -0.539862       -14.6904
 154   2.0000      -0.533970       -14.5301
 155   2.0000      -0.532360       -14.4862
 156   2.0000      -0.530419       -14.4334
 157   2.0000      -0.528455       -14.3800
 158   2.0000      -0.525789       -14.3074
 159   2.0000      -0.524827       -14.2813
 160   2.0000      -0.522502       -14.2180
 161   2.0000      -0.520932       -14.1753
 162   2.0000      -0.514155       -13.9909
 163   2.0000      -0.512107       -13.9351
 164   2.0000      -0.510413       -13.8890
 165   2.0000      -0.508298       -13.8315
 166   2.0000      -0.501685       -13.6515
 167   2.0000      -0.496911       -13.5216
 168   2.0000      -0.495238       -13.4761
 169   2.0000      -0.493374       -13.4254
 170   2.0000      -0.493251       -13.4221
 171   2.0000      -0.488045       -13.2804
 172   2.0000      -0.486856       -13.2480
 173   2.0000      -0.483286       -13.1509
 174   2.0000      -0.482285       -13.1236
 175   2.0000      -0.481378       -13.0990
 176   2.0000      -0.480187       -13.0665
 177   2.0000      -0.479366       -13.0442
 178   2.0000      -0.478835       -13.0298
 179   2.0000      -0.476640       -12.9700
 180   2.0000      -0.473257       -12.8780
 181   2.0000      -0.472740       -12.8639
 182   2.0000      -0.467030       -12.7085
 183   2.0000      -0.463523       -12.6131
 184   2.0000      -0.461747       -12.5648
 185   2.0000      -0.461090       -12.5469
 186   2.0000      -0.459423       -12.5015
 187   2.0000      -0.458486       -12.4760
 188   2.0000      -0.457234       -12.4420
 189   2.0000      -0.453785       -12.3481
 190   2.0000      -0.450929       -12.2704
 191   2.0000      -0.448897       -12.2151
 192   2.0000      -0.447903       -12.1880
 193   2.0000      -0.447322       -12.1723
 194   2.0000      -0.444391       -12.0925
 195   2.0000      -0.437456       -11.9038
 196   2.0000      -0.436867       -11.8878
 197   2.0000      -0.435849       -11.8601
 198   2.0000      -0.434029       -11.8105
 199   2.0000      -0.429493       -11.6871
 200   2.0000      -0.426538       -11.6067
 201   2.0000      -0.425611       -11.5815
 202   2.0000      -0.424429       -11.5493
 203   2.0000      -0.419481       -11.4146
 204   2.0000      -0.410956       -11.1827
 205   2.0000      -0.386648       -10.5212
 206   2.0000      -0.374744       -10.1973
 207   2.0000      -0.373387       -10.1604
 208   2.0000      -0.370942       -10.0938
 209   2.0000      -0.364242        -9.9115
 210   2.0000      -0.362931        -9.8758
 211   2.0000      -0.360989        -9.8230
 212   2.0000      -0.356897        -9.7117
 213   2.0000      -0.347243        -9.4490
 214   2.0000      -0.345313        -9.3964
 215   2.0000      -0.337162        -9.1746
 216   2.0000      -0.301431        -8.2024
 217   2.0000      -0.277165        -7.5420
 218   0.0000      -0.071438        -1.9439
 219   0.0000      -0.061655        -1.6777
 220   0.0000      -0.036965        -1.0059
 221   0.0000      -0.033386        -0.9085
 222   0.0000      -0.003866        -0.1052

MULLIKEN ATOMIC CHARGES
-----------------------
   0 C :    0.067777
   1 C :   -0.135935
   2 C :    0.224962
   3 C :   -0.060603
   4 C :    0.014421
   5 C :    0.273084
   6 O :   -0.193607
   7 C :   -0.380447
   8 C :   -0.135518
   9 C :   -0.128011
  10 N :    0.109255
  11 N :    0.100341
  12 C :   -0.029705
  13 C :    0.015272
  14 C :    0.015148
  15 C :   -0.037475
  16 C :   -0.075060
  17 C :    0.003490
  18 C :   -0.141820
  19 C :    0.229823
  20 C :   -0.067422
  21 C :    0.008031
  22 C :    0.296404
  23 O :   -0.205893
  24 C :   -0.385927
  25 C :   -0.123881
  26 C :   -0.127845
  27 N :    0.091784
  28 N :    0.104100
  29 C :   -0.023433
  30 C :    0.012396
  31 C :    0.015093
  32 C :   -0.032272
  33 C :   -0.059460
  34 C :    0.050292
  35 C :   -0.052547
  36 S :    0.186145
  37 C :   -0.228435
  38 C :   -0.021979
  39 C :    0.061563
  40 C :    0.025440
  41 C :    0.036952
  42 C :   -0.016903
  43 C :   -0.021635
  44 C :   -0.036521
  45 C :   -0.035792
  46 C :    0.022955
  47 C :    0.023895
  48 C :    0.045863
  49 C :    0.018366
  50 C :   -0.052490
  51 C :   -0.035288
  52 C :   -0.073178
  53 C :    0.023149
  54 C :   -0.209570
  55 C :    0.014797
  56 C :    0.011316
  57 C :   -0.017692
  58 C :   -0.010766
  59 S :    0.150277
  60 C :   -0.141516
  61 C :   -0.008898
  62 H :    0.031788
  63 H :    0.024621
  64 H :    0.028494
  65 H :    0.030297
  66 H :    0.032355
  67 H :    0.028738
  68 H :    0.022633
  69 H :    0.029232
  70 H :    0.029182
  71 H :    0.030198
  72 H :    0.025941
  73 H :    0.025510
  74 H :    0.029390
  75 H :    0.029328
  76 H :    0.025441
  77 H :    0.040034
  78 H :    0.037999
  79 H :    0.039021
  80 H :    0.039669
  81 H :    0.037206
  82 H :    0.040817
  83 H :    0.002685
  84 H :    0.000170
  85 H :    0.005084
  86 H :    0.006183
  87 H :    0.032959
  88 H :    0.035984
  89 H :    0.034455
  90 H :    0.026017
  91 H :    0.043903
  92 H :    0.037503
  93 H :    0.026949
  94 H :    0.036799
  95 H :    0.040982
  96 H :    0.024275
  97 H :    0.043291
Sum of atomic charges:    0.0000000

LOEWDIN ATOMIC CHARGES
----------------------
   0 C :    0.055700
   1 C :   -0.117164
   2 C :    0.097955
   3 C :   -0.048409
   4 C :   -0.018737
   5 C :    0.081499
   6 O :   -0.153043
   7 C :   -0.150820
   8 C :   -0.019431
   9 C :   -0.012752
  10 N :   -0.056649
  11 N :   -0.059035
  12 C :    0.010788
  13 C :   -0.005575
  14 C :   -0.002385
  15 C :    0.001125
  16 C :   -0.192549
  17 C :    0.065247
  18 C :   -0.129907
  19 C :    0.091855
  20 C :   -0.048486
  21 C :   -0.018083
  22 C :    0.082703
  23 O :   -0.172997
  24 C :   -0.151921
  25 C :   -0.014379
  26 C :   -0.013240
  27 N :   -0.061183
  28 N :   -0.059127
  29 C :    0.011020
  30 C :   -0.005982
  31 C :   -0.002452
  32 C :    0.001624
  33 C :   -0.008635
  34 C :   -0.050807
  35 C :   -0.153730
  36 S :    0.508922
  37 C :   -0.040893
  38 C :    0.010356
  39 C :   -0.031442
  40 C :   -0.015109
  41 C :   -0.013223
  42 C :   -0.059561
  43 C :   -0.059903
  44 C :   -0.020595
  45 C :   -0.007876
  46 C :   -0.016928
  47 C :   -0.014918
  48 C :   -0.030700
  49 C :    0.012499
  50 C :   -0.020875
  51 C :   -0.007435
  52 C :   -0.146847
  53 C :   -0.044685
  54 C :   -0.037208
  55 C :   -0.014628
  56 C :   -0.017872
  57 C :   -0.058905
  58 C :   -0.061302
  59 S :    0.453867
  60 C :   -0.186900
  61 C :   -0.001085
  62 H :    0.044598
  63 H :    0.041838
  64 H :    0.037085
  65 H :    0.039104
  66 H :    0.042095
  67 H :    0.052021
  68 H :    0.041732
  69 H :    0.037142
  70 H :    0.038838
  71 H :    0.041958
  72 H :    0.040764
  73 H :    0.023601
  74 H :    0.025973
  75 H :    0.025969
  76 H :    0.023779
  77 H :    0.027211
  78 H :    0.029340
  79 H :    0.026913
  80 H :    0.026916
  81 H :    0.029196
  82 H :    0.027272
  83 H :    0.034280
  84 H :    0.023211
  85 H :    0.032917
  86 H :    0.025640
  87 H :    0.031684
  88 H :    0.025854
  89 H :    0.031690
  90 H :    0.020922
  91 H :    0.030217
  92 H :    0.032115
  93 H :    0.023245
  94 H :    0.026005
  95 H :    0.033007
  96 H :    0.022616
  97 H :    0.034463

  Mayer bond orders larger than 0.100000
B(  0-C ,  1-C ) :   1.5969 B(  0-C , 60-C ) :   1.2431 B(  0-C , 62-H ) :   0.9176
B(  1-C ,  2-C ) :   0.9529 B(  1-C ,  5-C ) :   1.0931 B(  2-C ,  3-C ) :   0.9632
B(  2-C ,  6-O ) :   2.1367 B(  3-C ,  4-C ) :   1.3339 B(  3-C , 12-C ) :   1.4056
B(  4-C ,  5-C ) :   0.9998 B(  4-C , 15-C ) :   1.3901 B(  5-C ,  7-C ) :   1.6355
B(  7-C ,  8-C ) :   1.1279 B(  7-C ,  9-C ) :   1.1328 B(  8-C , 10-N ) :   2.9776
B(  9-C , 11-N ) :   2.9718 B( 12-C , 13-C ) :   1.3582 B( 12-C , 63-H ) :   1.0048
B( 13-C , 14-C ) :   1.3885 B( 13-C , 64-H ) :   0.9903 B( 14-C , 15-C ) :   1.3865
B( 14-C , 65-H ) :   0.9857 B( 15-C , 66-H ) :   0.9843 B( 16-C , 17-C ) :   1.2967
B( 16-C , 33-C ) :   1.3260 B( 16-C , 36-S ) :   1.0707 B( 17-C , 18-C ) :   1.5078
B( 17-C , 67-H ) :   0.9391 B( 18-C , 19-C ) :   0.9801 B( 18-C , 22-C ) :   1.1007
B( 19-C , 20-C ) :   0.9668 B( 19-C , 23-O ) :   2.1191 B( 20-C , 21-C ) :   1.3344
B( 20-C , 29-C ) :   1.4093 B( 21-C , 22-C ) :   0.9989 B( 21-C , 32-C ) :   1.3971
B( 22-C , 24-C ) :   1.6304 B( 24-C , 25-C ) :   1.1331 B( 24-C , 26-C ) :   1.1327
B( 25-C , 27-N ) :   2.9530 B( 26-C , 28-N ) :   2.9704 B( 29-C , 30-C ) :   1.3548
B( 29-C , 68-H ) :   1.0038 B( 30-C , 31-C ) :   1.3918 B( 30-C , 69-H ) :   0.9904
B( 31-C , 32-C ) :   1.3841 B( 31-C , 70-H ) :   0.9856 B( 32-C , 71-H ) :   0.9820
B( 33-C , 34-C ) :   1.3718 B( 33-C , 72-H ) :   1.0181 B( 34-C , 35-C ) :   1.4326
B( 34-C , 37-C ) :   0.9209 B( 35-C , 36-S ) :   1.1282 B( 35-C , 39-C ) :   1.1007
B( 37-C , 38-C ) :   0.9115 B( 37-C , 40-C ) :   1.0387 B( 37-C , 41-C ) :   1.0324
B( 38-C , 39-C ) :   1.4716 B( 38-C , 44-C ) :   1.3011 B( 39-C , 47-C ) :   1.2054
B( 40-C , 42-C ) :   1.0889 B( 40-C , 73-H ) :   0.9464 B( 40-C , 74-H ) :   0.9476
B( 41-C , 43-C ) :   1.0851 B( 41-C , 75-H ) :   0.9482 B( 41-C , 76-H ) :   0.9476
B( 42-C , 77-H ) :   0.9663 B( 42-C , 78-H ) :   0.9701 B( 42-C , 79-H ) :   0.9679
B( 43-C , 80-H ) :   0.9687 B( 43-C , 81-H ) :   0.9701 B( 43-C , 82-H ) :   0.9671
B( 44-C , 45-C ) :   1.4760 B( 44-C , 83-H ) :   1.0042 B( 45-C , 46-C ) :   1.2459
B( 45-C , 84-H ) :   0.9854 B( 46-C , 47-C ) :   1.2556 B( 46-C , 48-C ) :   1.2005
B( 47-C , 51-C ) :   1.2464 B( 48-C , 49-C ) :   1.4913 B( 48-C , 52-C ) :   1.0943
B( 49-C , 50-C ) :   1.3016 B( 49-C , 54-C ) :   0.9348 B( 50-C , 51-C ) :   1.4795
B( 50-C , 85-H ) :   0.9958 B( 51-C , 86-H ) :   0.9863 B( 52-C , 53-C ) :   1.4779
B( 52-C , 59-S ) :   1.1595 B( 53-C , 54-C ) :   0.9488 B( 53-C , 61-C ) :   1.3421
B( 54-C , 55-C ) :   0.9869 B( 54-C , 56-C ) :   1.0057 B( 55-C , 58-C ) :   1.1012
B( 55-C , 87-H ) :   0.9444 B( 55-C , 88-H ) :   0.9484 B( 56-C , 57-C ) :   1.0970
B( 56-C , 89-H ) :   0.9478 B( 56-C , 90-H ) :   0.9435 B( 57-C , 91-H ) :   0.9671
B( 57-C , 92-H ) :   0.9669 B( 57-C , 93-H ) :   0.9644 B( 58-C , 94-H ) :   0.9638
B( 58-C , 95-H ) :   0.9669 B( 58-C , 96-H ) :   0.9653 B( 59-S , 60-C ) :   1.0760
B( 60-C , 61-C ) :   1.4012 B( 61-C , 97-H ) :   0.9788

-----------------------------------------------------------------------------
         ABSORPTION SPECTRUM VIA TRANSITION ELECTRIC DIPOLE MOMENTS
-----------------------------------------------------------------------------
State   Energy  Wavelength   fosc         T2         TX        TY        TZ
        (cm-1)    (nm)                  (au**2)     (au)      (au)      (au)
-----------------------------------------------------------------------------
   0   20639.8    484.5   2.792241741  44.53732   4.03742   1.16413   5.18472
   1   25463.7    392.7   0.063893343   0.82606   0.32467  -0.80314   0.27497
   2   29668.6    337.1   0.002197986   0.02439  -0.14935  -0.04427  -0.01115
   3   30505.4    327.8   0.029709855   0.32063  -0.35021  -0.21627   0.38886
   4   32309.6    309.5   0.023414154   0.23857   0.27410   0.02097  -0.40374
   5   32943.2    303.6   0.189328170   1.89202  -1.04100  -0.51531  -0.73674
   6   34919.3    286.4   0.019571599   0.18452  -0.41313  -0.03358   0.11276
   7   36360.6    275.0   0.524814016   4.75171  -1.63311  -0.15307   1.43570
   8   36923.4    270.8   0.560571303   4.99809  -0.53112  -0.46502   2.12126
   9   38096.4    262.5   0.099376366   0.85877  -0.88678   0.26338   0.05499
  10   38616.6    259.0   0.052724511   0.44948  -0.64835   0.06336  -0.15847
  11   39562.5    252.8   0.107117348   0.89136   0.59740   0.60902   0.40444
  12   39847.5    251.0   0.651338399   5.38123   1.57132   0.19326  -1.69553

Dispersion correction           -0.060479570
FINAL SINGLE POINT ENERGY     -3242.500437746906

DIPOLE MOMENT
-------------
                                X             Y             Z
Electronic contribution:     -9.68939       8.01354       6.92783
Nuclear contribution   :     11.96207      -7.94992      -9.10987
                        -----------------------------------------
Total Dipole Moment    :      2.27268       0.06362      -2.18204
                        -----------------------------------------
Magnitude (a.u.)       :      3.15126
Magnitude (Debye)      :      8.00986

Rotational constants in cm-1:     0.002892     0.000404     0.000369
Rotational constants in MHz :    86.688910    12.110166    11.052315

                             ****ORCA TERMINATED NORMALLY****
TOTAL RUN TIME: 0 days 0 hours 8 minutes 46 seconds 726 msec
