                         Program Version 4.2.0 -  RELEASE  -
|  1> # ORCA input file
|  2> # SCF done       -196.489070316326          0.000506483842
|  3> ! wb97x-d3 def2-SVP def2/J RIJCOSX Grid4 TightSCF
|  4> %maxcore 5000
|  5> %tddft
|  6>     Mode sTDDFT
|  7>     Ethresh 5.0
|  8>     maxcore 5000
|  9> end
| 10>
| 11> %pal
| 12>   nprocs 6
| 13>   end
| 14> * xyz 0 1
| 15>    C       -3.28307        -1.84919        -0.08792
| 16>    C       -3.90007        -1.03829         0.88464
| 17>    C       -5.07638        -0.38246         0.59651
| 18>    C       -5.65675        -0.61843        -0.64668
| 19>    C       -5.06828        -1.47751        -1.60514
| 20>    C       -3.85461        -2.06915        -1.33944
| 21>    C       -5.92641        -1.56717        -2.85412
| 22>    C       -7.02578        -0.59370        -2.51324
| 23>    C       -6.85101        -0.08771        -1.22225
| 24>    C       -8.16994        -0.11872        -3.11047
| 25>    C       -8.88412         0.76735        -2.28541
| 26>    S       -8.07973         0.99152        -0.73671
| 27>    C      -10.09305         1.34010        -2.68979
| 28>    C      -10.93723         2.21127        -2.04109
| 29>    C      -12.19526         2.70864        -2.55935
| 30>    C      -12.73006         3.65176        -1.57641
| 31>    C      -11.84831         3.71534        -0.48409
| 32>    C      -10.70414         2.81245        -0.72571
| 33>    C      -13.88037         4.42271        -1.57210
| 34>    C      -14.12951         5.24323        -0.47653
| 35>    C      -13.24569         5.29805         0.60579
| 36>    C      -12.09037         4.52597         0.60496
| 37>    O       -9.76599         2.62661         0.02793
| 38>    C      -12.81384         2.36280        -3.73376
| 39>    C      -14.05507         2.88376        -4.15680
| 40>    C      -12.32966         1.43962        -4.68378
| 41>    N      -12.01226         0.70224        -5.50600
| 42>    N      -15.05853         3.26626        -4.56216
| 43>    C       -5.15812        -1.15432        -4.11840
| 44>    C       -6.58245        -2.95930        -3.01104
| 45>    C       -2.04558        -2.36141         0.45536
| 46>    C       -1.89674        -1.87616         1.76907
| 47>    C       -3.05721        -0.97688         2.14190
| 48>    C       -2.62440         0.49080         2.34763
| 49>    C       -3.76461        -1.59796         3.36498
| 50>    C       -1.11561        -3.21930        -0.12801
| 51>    C       -0.04591        -3.62683         0.63602
| 52>    C        0.09346        -3.14481         1.95868
| 53>    C       -0.82846        -2.27775         2.53916
| 54>    C        1.10594        -4.54987         0.26629
| 55>    C        1.91065        -4.52040         1.54283
| 56>    C        1.29057        -3.70606         2.49532
| 57>    C        0.65372        -6.00750         0.03370
| 58>    C        1.86953        -3.93360        -0.92211
| 59>    C        3.04240        -5.12514         2.04082
| 60>    C        3.31599        -4.76032         3.37034
| 61>    S        2.10830        -3.64347         3.99090
| 62>    C        4.41198        -5.27851         4.06565
| 63>    C        4.84428        -5.06296         5.35359
| 64>    C        5.99450        -5.69025         5.97179
| 65>    C        6.10717        -5.15436         7.32886
| 66>    C        5.06013        -4.24210         7.54367
| 67>    C        4.23019        -4.15398         6.32452
| 68>    O        3.24255        -3.45700         6.17837
| 69>    C        6.83414        -6.62698         5.42499
| 70>    C        7.93210        -7.19731         6.10345
| 71>    N        8.83966        -7.70257         6.59215
| 72>    C        6.73736        -7.16894         4.12649
| 73>    N        6.73315        -7.66488         3.08997
| 74>    C        7.01956        -5.39876         8.34149
| 75>    C        6.86949        -4.72794         9.55105
| 76>    C        5.82315        -3.82273         9.75450
| 77>    C        4.90599        -3.57459         8.74052
| 78>    C       -0.21688        -6.25340        -1.19142
| 79>    C        3.11153        -4.69899        -1.35866
| 80>    C       -1.71037         0.75971         3.53575
| 81>    C       -5.00073        -0.86625         3.87124
| 82>    C       -4.61790         0.26860        -4.03291
| 83>    C       -5.62397        -4.13049        -3.17874
| 84>   Cl      -13.58509         6.32229         1.94191
| 85>   Cl      -15.55341         6.20412        -0.46484
| 86>   Cl        7.99775        -5.02526        10.81174
| 87>   Cl        5.66785        -3.01277        11.26089
| 88>    H       -5.54797         0.30186         1.28346
| 89>    H       -3.34563        -2.67607        -2.07178
| 90>    H       -8.51521        -0.37264        -4.09720
| 91>    H      -10.39544         1.02631        -3.68167
| 92>    H      -14.58541         4.40973        -2.38674
| 93>    H      -11.39923         4.55794         1.43228
| 94>    H       -4.32522        -1.84173        -4.26958
| 95>    H       -5.82743        -1.23926        -4.97685
| 96>    H       -7.20259        -3.13907        -2.12900
| 97>    H       -7.24618        -2.91248        -3.87720
| 98>    H       -2.11837         0.81408         1.43357
| 99>    H       -3.52663         1.09598         2.44797
|100>    H       -4.04544        -2.62023         3.09640
|101>    H       -3.03611        -1.66607         4.17424
|102>    H       -1.24535        -3.54470        -1.14798
|103>    H       -0.68916        -1.95858         3.55968
|104>    H        1.55035        -6.62556        -0.03514
|105>    H        0.10632        -6.32767         0.92432
|106>    H        1.18221        -3.84725        -1.76493
|107>    H        2.15996        -2.91924        -0.63540
|108>    H        3.67272        -5.81945         1.51396
|109>    H        5.00042        -5.96627         3.47030
|110>    H        7.83929        -6.08805         8.22396
|111>    H        4.09410        -2.87908         8.88279
|112>    H        0.26890        -5.91023        -2.10078
|113>    H       -0.40017        -7.32122        -1.29063
|114>    H       -1.17851        -5.75810        -1.09318
|115>    H        2.86587        -5.70963        -1.67267
|116>    H        3.57413        -4.18744        -2.19992
|117>    H        3.83957        -4.74833        -0.55414
|118>    H       -0.74757         0.27355         3.40787
|119>    H       -1.53567         1.83061         3.61664
|120>    H       -2.15715         0.42133         4.46650
|121>    H       -5.80232        -0.89606         3.13904
|122>    H       -5.35766        -1.35309         4.77653
|123>    H       -4.77955         0.16977         4.11238
|124>    H       -3.95071         0.37515        -3.18014
|125>    H       -4.06437         0.51302        -4.93635
|126>    H       -5.42928         0.98454        -3.92444
|127>    H       -5.01593        -4.26494        -2.28836
|128>    H       -6.19698        -5.04165        -3.33574
|129>    H       -4.97286        -3.99186        -4.03764
|130> *
|131>
|132>                          ****END OF INPUT****

CARTESIAN COORDINATES (ANGSTROEM)
---------------------------------
  C     -3.283070   -1.849190   -0.087920
  C     -3.900070   -1.038290    0.884640
  C     -5.076380   -0.382460    0.596510
  C     -5.656750   -0.618430   -0.646680
  C     -5.068280   -1.477510   -1.605140
  C     -3.854610   -2.069150   -1.339440
  C     -5.926410   -1.567170   -2.854120
  C     -7.025780   -0.593700   -2.513240
  C     -6.851010   -0.087710   -1.222250
  C     -8.169940   -0.118720   -3.110470
  C     -8.884120    0.767350   -2.285410
  S     -8.079730    0.991520   -0.736710
  C    -10.093050    1.340100   -2.689790
  C    -10.937230    2.211270   -2.041090
  C    -12.195260    2.708640   -2.559350
  C    -12.730060    3.651760   -1.576410
  C    -11.848310    3.715340   -0.484090
  C    -10.704140    2.812450   -0.725710
  C    -13.880370    4.422710   -1.572100
  C    -14.129510    5.243230   -0.476530
  C    -13.245690    5.298050    0.605790
  C    -12.090370    4.525970    0.604960
  O     -9.765990    2.626610    0.027930
  C    -12.813840    2.362800   -3.733760
  C    -14.055070    2.883760   -4.156800
  C    -12.329660    1.439620   -4.683780
  N    -12.012260    0.702240   -5.506000
  N    -15.058530    3.266260   -4.562160
  C     -5.158120   -1.154320   -4.118400
  C     -6.582450   -2.959300   -3.011040
  C     -2.045580   -2.361410    0.455360
  C     -1.896740   -1.876160    1.769070
  C     -3.057210   -0.976880    2.141900
  C     -2.624400    0.490800    2.347630
  C     -3.764610   -1.597960    3.364980
  C     -1.115610   -3.219300   -0.128010
  C     -0.045910   -3.626830    0.636020
  C      0.093460   -3.144810    1.958680
  C     -0.828460   -2.277750    2.539160
  C      1.105940   -4.549870    0.266290
  C      1.910650   -4.520400    1.542830
  C      1.290570   -3.706060    2.495320
  C      0.653720   -6.007500    0.033700
  C      1.869530   -3.933600   -0.922110
  C      3.042400   -5.125140    2.040820
  C      3.315990   -4.760320    3.370340
  S      2.108300   -3.643470    3.990900
  C      4.411980   -5.278510    4.065650
  C      4.844280   -5.062960    5.353590
  C      5.994500   -5.690250    5.971790
  C      6.107170   -5.154360    7.328860
  C      5.060130   -4.242100    7.543670
  C      4.230190   -4.153980    6.324520
  O      3.242550   -3.457000    6.178370
  C      6.834140   -6.626980    5.424990
  C      7.932100   -7.197310    6.103450
  N      8.839660   -7.702570    6.592150
  C      6.737360   -7.168940    4.126490
  N      6.733150   -7.664880    3.089970
  C      7.019560   -5.398760    8.341490
  C      6.869490   -4.727940    9.551050
  C      5.823150   -3.822730    9.754500
  C      4.905990   -3.574590    8.740520
  C     -0.216880   -6.253400   -1.191420
  C      3.111530   -4.698990   -1.358660
  C     -1.710370    0.759710    3.535750
  C     -5.000730   -0.866250    3.871240
  C     -4.617900    0.268600   -4.032910
  C     -5.623970   -4.130490   -3.178740
  Cl   -13.585090    6.322290    1.941910
  Cl   -15.553410    6.204120   -0.464840
  Cl     7.997750   -5.025260   10.811740
  Cl     5.667850   -3.012770   11.260890
  H     -5.547970    0.301860    1.283460
  H     -3.345630   -2.676070   -2.071780
  H     -8.515210   -0.372640   -4.097200
  H    -10.395440    1.026310   -3.681670
  H    -14.585410    4.409730   -2.386740
  H    -11.399230    4.557940    1.432280
  H     -4.325220   -1.841730   -4.269580
  H     -5.827430   -1.239260   -4.976850
  H     -7.202590   -3.139070   -2.129000
  H     -7.246180   -2.912480   -3.877200
  H     -2.118370    0.814080    1.433570
  H     -3.526630    1.095980    2.447970
  H     -4.045440   -2.620230    3.096400
  H     -3.036110   -1.666070    4.174240
  H     -1.245350   -3.544700   -1.147980
  H     -0.689160   -1.958580    3.559680
  H      1.550350   -6.625560   -0.035140
  H      0.106320   -6.327670    0.924320
  H      1.182210   -3.847250   -1.764930
  H      2.159960   -2.919240   -0.635400
  H      3.672720   -5.819450    1.513960
  H      5.000420   -5.966270    3.470300
  H      7.839290   -6.088050    8.223960
  H      4.094100   -2.879080    8.882790
  H      0.268900   -5.910230   -2.100780
  H     -0.400170   -7.321220   -1.290630
  H     -1.178510   -5.758100   -1.093180
  H      2.865870   -5.709630   -1.672670
  H      3.574130   -4.187440   -2.199920
  H      3.839570   -4.748330   -0.554140
  H     -0.747570    0.273550    3.407870
  H     -1.535670    1.830610    3.616640
  H     -2.157150    0.421330    4.466500
  H     -5.802320   -0.896060    3.139040
  H     -5.357660   -1.353090    4.776530
  H     -4.779550    0.169770    4.112380
  H     -3.950710    0.375150   -3.180140
  H     -4.064370    0.513020   -4.936350
  H     -5.429280    0.984540   -3.924440
  H     -5.015930   -4.264940   -2.288360
  H     -6.196980   -5.041650   -3.335740
  H     -4.972860   -3.991860   -4.037640

 Total Charge           Charge          ....    0
 Multiplicity           Mult            ....    1
 Number of Electrons    NEL             ....  552
 Basis Dimension        Dim             .... 1256

ORBITAL ENERGIES
----------------

  NO   OCC          E(Eh)            E(eV)
   0   2.0000    -101.625425     -2765.3684
   1   2.0000    -101.625381     -2765.3672
   2   2.0000    -101.623228     -2765.3086
   3   2.0000    -101.623149     -2765.3065
   4   2.0000     -88.994660     -2421.6678
   5   2.0000     -88.994629     -2421.6670
   6   2.0000     -19.259652      -524.0818
   7   2.0000     -19.259596      -524.0802
   8   2.0000     -14.454150      -393.3174
   9   2.0000     -14.454072      -393.3153
  10   2.0000     -14.449195      -393.1826
  11   2.0000     -14.449170      -393.1819
  12   2.0000     -10.406943      -283.1873
  13   2.0000     -10.406879      -283.1856
  14   2.0000     -10.391269      -282.7608
  15   2.0000     -10.391237      -282.7599
  16   2.0000     -10.390734      -282.7463
  17   2.0000     -10.390717      -282.7458
  18   2.0000     -10.381441      -282.4934
  19   2.0000     -10.381382      -282.4918
  20   2.0000     -10.377489      -282.3858
  21   2.0000     -10.377447      -282.3847
  22   2.0000     -10.360878      -281.9338
  23   2.0000     -10.360821      -281.9323
  24   2.0000     -10.355459      -281.7864
  25   2.0000     -10.355319      -281.7826
  26   2.0000     -10.351219      -281.6710
  27   2.0000     -10.350903      -281.6624
  28   2.0000     -10.350610      -281.6544
  29   2.0000     -10.350565      -281.6532
  30   2.0000     -10.349618      -281.6274
  31   2.0000     -10.349599      -281.6269
  32   2.0000     -10.344151      -281.4787
  33   2.0000     -10.343691      -281.4661
  34   2.0000     -10.343295      -281.4554
  35   2.0000     -10.343259      -281.4544
  36   2.0000     -10.342742      -281.4403
  37   2.0000     -10.342698      -281.4391
  38   2.0000     -10.335114      -281.2327
  39   2.0000     -10.335069      -281.2315
  40   2.0000     -10.334039      -281.2035
  41   2.0000     -10.333536      -281.1898
  42   2.0000     -10.332408      -281.1591
  43   2.0000     -10.330874      -281.1174
  44   2.0000     -10.329714      -281.0858
  45   2.0000     -10.329674      -281.0847
  46   2.0000     -10.326168      -280.9893
  47   2.0000     -10.325698      -280.9765
  48   2.0000     -10.325371      -280.9676
  49   2.0000     -10.322487      -280.8891
  50   2.0000     -10.322458      -280.8884
  51   2.0000     -10.320712      -280.8409
  52   2.0000     -10.320366      -280.8314
  53   2.0000     -10.319837      -280.8170
  54   2.0000     -10.319702      -280.8134
  55   2.0000     -10.318637      -280.7844
  56   2.0000     -10.318343      -280.7764
  57   2.0000     -10.317123      -280.7432
  58   2.0000     -10.316834      -280.7353
  59   2.0000     -10.316209      -280.7183
  60   2.0000     -10.315311      -280.6939
  61   2.0000     -10.309330      -280.5311
  62   2.0000     -10.309086      -280.5245
  63   2.0000     -10.308853      -280.5181
  64   2.0000     -10.308359      -280.5047
  65   2.0000     -10.306452      -280.4528
  66   2.0000     -10.306375      -280.4507
  67   2.0000     -10.296308      -280.1768
  68   2.0000     -10.295387      -280.1517
  69   2.0000     -10.294439      -280.1259
  70   2.0000     -10.293093      -280.0893
  71   2.0000     -10.292854      -280.0828
  72   2.0000     -10.289214      -279.9837
  73   2.0000      -9.602212      -261.2895
  74   2.0000      -9.602157      -261.2880
  75   2.0000      -9.600042      -261.2304
  76   2.0000      -9.599996      -261.2292
  77   2.0000      -8.106401      -220.5864
  78   2.0000      -8.106357      -220.5852
  79   2.0000      -7.362230      -200.3365
  80   2.0000      -7.362170      -200.3348
  81   2.0000      -7.360061      -200.2775
  82   2.0000      -7.360020      -200.2763
  83   2.0000      -7.352247      -200.0648
  84   2.0000      -7.352195      -200.0634
  85   2.0000      -7.351590      -200.0469
  86   2.0000      -7.351535      -200.0454
  87   2.0000      -7.350056      -200.0052
  88   2.0000      -7.350004      -200.0038
  89   2.0000      -7.349420      -199.9879
  90   2.0000      -7.349367      -199.9864
  91   2.0000      -6.065942      -165.0627
  92   2.0000      -6.065911      -165.0618
  93   2.0000      -6.061436      -164.9401
  94   2.0000      -6.061381      -164.9386
  95   2.0000      -6.058908      -164.8713
  96   2.0000      -6.058880      -164.8705
  97   2.0000      -1.177623       -32.0447
  98   2.0000      -1.177590       -32.0439
  99   2.0000      -1.069260       -29.0960
 100   2.0000      -1.069225       -29.0951
 101   2.0000      -1.055871       -28.7317
 102   2.0000      -1.054946       -28.7065
 103   2.0000      -1.054132       -28.6844
 104   2.0000      -1.052373       -28.6365
 105   2.0000      -1.033219       -28.1153
 106   2.0000      -1.033101       -28.1121
 107   2.0000      -1.032931       -28.1075
 108   2.0000      -1.029404       -28.0115
 109   2.0000      -1.028827       -27.9958
 110   2.0000      -1.004428       -27.3319
 111   2.0000      -0.997640       -27.1472
 112   2.0000      -0.997608       -27.1463
 113   2.0000      -0.993237       -27.0273
 114   2.0000      -0.971704       -26.4414
 115   2.0000      -0.970539       -26.4097
 116   2.0000      -0.960722       -26.1426
 117   2.0000      -0.948104       -25.7992
 118   2.0000      -0.944466       -25.7002
 119   2.0000      -0.943373       -25.6705
 120   2.0000      -0.932636       -25.3783
 121   2.0000      -0.921524       -25.0759
 122   2.0000      -0.909514       -24.7491
 123   2.0000      -0.898773       -24.4569
 124   2.0000      -0.898576       -24.4515
 125   2.0000      -0.891200       -24.2508
 126   2.0000      -0.885543       -24.0968
 127   2.0000      -0.884145       -24.0588
 128   2.0000      -0.883393       -24.0383
 129   2.0000      -0.882595       -24.0166
 130   2.0000      -0.880220       -23.9520
 131   2.0000      -0.879486       -23.9320
 132   2.0000      -0.877674       -23.8827
 133   2.0000      -0.864266       -23.5179
 134   2.0000      -0.838846       -22.8262
 135   2.0000      -0.831370       -22.6227
 136   2.0000      -0.814585       -22.1660
 137   2.0000      -0.810331       -22.0502
 138   2.0000      -0.806326       -21.9413
 139   2.0000      -0.805175       -21.9099
 140   2.0000      -0.797245       -21.6942
 141   2.0000      -0.790273       -21.5044
 142   2.0000      -0.775102       -21.0916
 143   2.0000      -0.756453       -20.5841
 144   2.0000      -0.753421       -20.5016
 145   2.0000      -0.749511       -20.3952
 146   2.0000      -0.746273       -20.3071
 147   2.0000      -0.738666       -20.1001
 148   2.0000      -0.735026       -20.0011
 149   2.0000      -0.733914       -19.9708
 150   2.0000      -0.731844       -19.9145
 151   2.0000      -0.730013       -19.8647
 152   2.0000      -0.722595       -19.6628
 153   2.0000      -0.714468       -19.4417
 154   2.0000      -0.705513       -19.1980
 155   2.0000      -0.696579       -18.9549
 156   2.0000      -0.691175       -18.8078
 157   2.0000      -0.688978       -18.7481
 158   2.0000      -0.678838       -18.4721
 159   2.0000      -0.675061       -18.3694
 160   2.0000      -0.668848       -18.2003
 161   2.0000      -0.663559       -18.0563
 162   2.0000      -0.656430       -17.8624
 163   2.0000      -0.655911       -17.8482
 164   2.0000      -0.651173       -17.7193
 165   2.0000      -0.647906       -17.6304
 166   2.0000      -0.632843       -17.2205
 167   2.0000      -0.626986       -17.0612
 168   2.0000      -0.621400       -16.9091
 169   2.0000      -0.619994       -16.8709
 170   2.0000      -0.616733       -16.7822
 171   2.0000      -0.606734       -16.5101
 172   2.0000      -0.602488       -16.3945
 173   2.0000      -0.597087       -16.2476
 174   2.0000      -0.593375       -16.1466
 175   2.0000      -0.592921       -16.1342
 176   2.0000      -0.587195       -15.9784
 177   2.0000      -0.586838       -15.9687
 178   2.0000      -0.584339       -15.9007
 179   2.0000      -0.583927       -15.8895
 180   2.0000      -0.583246       -15.8709
 181   2.0000      -0.582442       -15.8491
 182   2.0000      -0.578066       -15.7300
 183   2.0000      -0.578035       -15.7291
 184   2.0000      -0.575058       -15.6481
 185   2.0000      -0.573203       -15.5976
 186   2.0000      -0.569094       -15.4858
 187   2.0000      -0.568679       -15.4745
 188   2.0000      -0.565155       -15.3787
 189   2.0000      -0.564608       -15.3638
 190   2.0000      -0.562349       -15.3023
 191   2.0000      -0.560399       -15.2492
 192   2.0000      -0.552828       -15.0432
 193   2.0000      -0.549262       -14.9462
 194   2.0000      -0.547037       -14.8856
 195   2.0000      -0.545173       -14.8349
 196   2.0000      -0.544076       -14.8051
 197   2.0000      -0.538954       -14.6657
 198   2.0000      -0.536051       -14.5867
 199   2.0000      -0.535429       -14.5698
 200   2.0000      -0.533912       -14.5285
 201   2.0000      -0.531277       -14.4568
 202   2.0000      -0.530684       -14.4407
 203   2.0000      -0.526890       -14.3374
 204   2.0000      -0.526019       -14.3137
 205   2.0000      -0.524842       -14.2817
 206   2.0000      -0.520906       -14.1746
 207   2.0000      -0.519269       -14.1300
 208   2.0000      -0.518470       -14.1083
 209   2.0000      -0.516262       -14.0482
 210   2.0000      -0.511544       -13.9198
 211   2.0000      -0.510631       -13.8950
 212   2.0000      -0.507564       -13.8115
 213   2.0000      -0.503929       -13.7126
 214   2.0000      -0.501875       -13.6567
 215   2.0000      -0.500438       -13.6176
 216   2.0000      -0.498208       -13.5569
 217   2.0000      -0.492175       -13.3928
 218   2.0000      -0.489631       -13.3235
 219   2.0000      -0.486281       -13.2324
 220   2.0000      -0.486019       -13.2253
 221   2.0000      -0.484455       -13.1827
 222   2.0000      -0.483609       -13.1597
 223   2.0000      -0.479689       -13.0530
 224   2.0000      -0.478981       -13.0337
 225   2.0000      -0.478369       -13.0171
 226   2.0000      -0.477622       -12.9968
 227   2.0000      -0.475187       -12.9305
 228   2.0000      -0.473730       -12.8909
 229   2.0000      -0.473589       -12.8870
 230   2.0000      -0.472543       -12.8585
 231   2.0000      -0.472082       -12.8460
 232   2.0000      -0.468621       -12.7518
 233   2.0000      -0.466931       -12.7058
 234   2.0000      -0.465014       -12.6537
 235   2.0000      -0.463307       -12.6072
 236   2.0000      -0.463041       -12.6000
 237   2.0000      -0.462999       -12.5988
 238   2.0000      -0.462943       -12.5973
 239   2.0000      -0.460106       -12.5201
 240   2.0000      -0.457715       -12.4551
 241   2.0000      -0.454686       -12.3726
 242   2.0000      -0.452003       -12.2996
 243   2.0000      -0.450814       -12.2673
 244   2.0000      -0.444802       -12.1037
 245   2.0000      -0.443486       -12.0679
 246   2.0000      -0.442164       -12.0319
 247   2.0000      -0.441329       -12.0092
 248   2.0000      -0.440351       -11.9826
 249   2.0000      -0.440167       -11.9776
 250   2.0000      -0.438278       -11.9261
 251   2.0000      -0.436112       -11.8672
 252   2.0000      -0.435351       -11.8465
 253   2.0000      -0.432191       -11.7605
 254   2.0000      -0.428271       -11.6539
 255   2.0000      -0.426732       -11.6120
 256   2.0000      -0.420599       -11.4451
 257   2.0000      -0.418688       -11.3931
 258   2.0000      -0.414841       -11.2884
 259   2.0000      -0.414743       -11.2857
 260   2.0000      -0.414482       -11.2786
 261   2.0000      -0.404010       -10.9937
 262   2.0000      -0.385994       -10.5034
 263   2.0000      -0.374735       -10.1971
 264   2.0000      -0.370533       -10.0827
 265   2.0000      -0.370449       -10.0804
 266   2.0000      -0.369363       -10.0509
 267   2.0000      -0.366191        -9.9646
 268   2.0000      -0.364341        -9.9142
 269   2.0000      -0.360521        -9.8103
 270   2.0000      -0.352044        -9.5796
 271   2.0000      -0.347522        -9.4565
 272   2.0000      -0.342703        -9.3254
 273   2.0000      -0.339013        -9.2250
 274   2.0000      -0.304458        -8.2847
 275   2.0000      -0.278249        -7.5715
 276   0.0000      -0.077227        -2.1014
 277   0.0000      -0.067346        -1.8326
 278   0.0000      -0.044682        -1.2159
 279   0.0000      -0.041084        -1.1179
 280   0.0000      -0.005606        -0.1525

MULLIKEN ATOMIC CHARGES
-----------------------
   0 C :    0.072901
   1 C :    0.029174
   2 C :   -0.103385
   3 C :    0.027932
   4 C :    0.018960
   5 C :   -0.104423
   6 C :   -0.202877
   7 C :    0.041718
   8 C :   -0.016453
   9 C :   -0.050961
  10 C :   -0.091761
  11 S :    0.207726
  12 C :    0.005087
  13 C :   -0.149123
  14 C :    0.297569
  15 C :    0.012110
  16 C :   -0.066526
  17 C :    0.235049
  18 C :   -0.000161
  19 C :    0.028907
  20 C :    0.044778
  21 C :   -0.012343
  22 O :   -0.199240
  23 C :   -0.379740
  24 C :   -0.131371
  25 C :   -0.127422
  26 N :    0.092939
  27 N :    0.112093
  28 C :    0.015067
  29 C :    0.033943
  30 C :    0.067206
  31 C :    0.028095
  32 C :   -0.213381
  33 C :    0.015348
  34 C :    0.010890
  35 C :   -0.104705
  36 C :    0.039606
  37 C :    0.013239
  38 C :   -0.098051
  39 C :   -0.190860
  40 C :    0.058772
  41 C :   -0.018669
  42 C :    0.011012
  43 C :    0.016321
  44 C :   -0.069482
  45 C :   -0.085221
  46 S :    0.207477
  47 C :    0.000471
  48 C :   -0.146579
  49 C :    0.296005
  50 C :    0.012691
  51 C :   -0.063939
  52 C :    0.235117
  53 O :   -0.199940
  54 C :   -0.378686
  55 C :   -0.132243
  56 N :    0.109288
  57 C :   -0.128976
  58 N :    0.096852
  59 C :   -0.001362
  60 C :    0.031838
  61 C :    0.044855
  62 C :   -0.014234
  63 C :   -0.010600
  64 C :   -0.015058
  65 C :   -0.013716
  66 C :   -0.013046
  67 C :   -0.020003
  68 C :   -0.016222
  69 Cl:   -0.047546
  70 Cl:   -0.039021
  71 Cl:   -0.039179
  72 Cl:   -0.047774
  73 H :   -0.003263
  74 H :   -0.017116
  75 H :    0.026633
  76 H :    0.028383
  77 H :    0.029401
  78 H :    0.028395
  79 H :    0.030311
  80 H :    0.027543
  81 H :    0.032243
  82 H :    0.027028
  83 H :    0.031488
  84 H :    0.027424
  85 H :    0.031853
  86 H :    0.028946
  87 H :   -0.017173
  88 H :   -0.004300
  89 H :    0.029857
  90 H :    0.034130
  91 H :    0.026739
  92 H :    0.033400
  93 H :    0.033020
  94 H :    0.027695
  95 H :    0.028529
  96 H :    0.028374
  97 H :    0.023336
  98 H :    0.042485
  99 H :    0.032476
 100 H :    0.029025
 101 H :    0.042333
 102 H :    0.031912
 103 H :    0.036540
 104 H :    0.041116
 105 H :    0.024390
 106 H :    0.037243
 107 H :    0.040411
 108 H :    0.025001
 109 H :    0.039331
 110 H :    0.036327
 111 H :    0.040511
 112 H :    0.036030
 113 H :    0.040955
 114 H :    0.024284
Sum of atomic charges:   -0.0000000

LOEWDIN ATOMIC CHARGES
----------------------
   0 C :   -0.010500
   1 C :    0.004333
   2 C :   -0.015382
   3 C :   -0.040039
   4 C :    0.011354
   5 C :   -0.024602
   6 C :   -0.039902
   7 C :   -0.050785
   8 C :   -0.151744
   9 C :   -0.005210
  10 C :   -0.192454
  11 S :    0.504943
  12 C :    0.067457
  13 C :   -0.133234
  14 C :    0.080925
  15 C :   -0.017003
  16 C :   -0.047064
  17 C :    0.090897
  18 C :   -0.010143
  19 C :   -0.131261
  20 C :   -0.135024
  21 C :    0.000331
  22 O :   -0.168150
  23 C :   -0.149828
  24 C :   -0.015375
  25 C :   -0.014457
  26 N :   -0.058374
  27 N :   -0.053727
  28 C :   -0.018709
  29 C :   -0.013065
  30 C :   -0.010668
  31 C :    0.003909
  32 C :   -0.039553
  33 C :   -0.017190
  34 C :   -0.017862
  35 C :   -0.024144
  36 C :    0.013513
  37 C :   -0.040768
  38 C :   -0.015367
  39 C :   -0.037910
  40 C :   -0.050969
  41 C :   -0.149735
  42 C :   -0.017281
  43 C :   -0.017860
  44 C :   -0.007307
  45 C :   -0.193428
  46 S :    0.505115
  47 C :    0.067317
  48 C :   -0.133456
  49 C :    0.080912
  50 C :   -0.016977
  51 C :   -0.047050
  52 C :    0.091017
  53 O :   -0.168354
  54 C :   -0.149882
  55 C :   -0.015312
  56 N :   -0.053822
  57 C :   -0.014881
  58 N :   -0.058055
  59 C :   -0.010220
  60 C :   -0.131142
  61 C :   -0.134908
  62 C :    0.000214
  63 C :   -0.061573
  64 C :   -0.059656
  65 C :   -0.061139
  66 C :   -0.061289
  67 C :   -0.058732
  68 C :   -0.062281
  69 Cl:    0.152406
  70 Cl:    0.155982
  71 Cl:    0.156052
  72 Cl:    0.152287
  73 H :    0.030729
  74 H :    0.027171
  75 H :    0.040592
  76 H :    0.052229
  77 H :    0.047122
  78 H :    0.049213
  79 H :    0.021987
  80 H :    0.025544
  81 H :    0.030063
  82 H :    0.024844
  83 H :    0.031002
  84 H :    0.021846
  85 H :    0.031068
  86 H :    0.022086
  87 H :    0.026309
  88 H :    0.030433
  89 H :    0.023750
  90 H :    0.031891
  91 H :    0.021094
  92 H :    0.031429
  93 H :    0.039259
  94 H :    0.052179
  95 H :    0.047047
  96 H :    0.049224
  97 H :    0.022380
  98 H :    0.033588
  99 H :    0.024143
 100 H :    0.023682
 101 H :    0.033291
 102 H :    0.025531
 103 H :    0.025579
 104 H :    0.033018
 105 H :    0.022769
 106 H :    0.025600
 107 H :    0.032896
 108 H :    0.022949
 109 H :    0.027229
 110 H :    0.028524
 111 H :    0.026795
 112 H :    0.024912
 113 H :    0.032628
 114 H :    0.022215

  Mayer bond orders larger than 0.100000
B(  0-C ,  1-C ) :   1.3884 B(  0-C ,  5-C ) :   1.3302 B(  0-C , 30-C ) :   1.0045
B(  1-C ,  2-C ) :   1.4101 B(  1-C , 32-C ) :   0.9338 B(  2-C ,  3-C ) :   1.3265
B(  2-C , 73-H ) :   0.9970 B(  3-C ,  4-C ) :   1.3735 B(  3-C ,  8-C ) :   1.0852
B(  4-C ,  5-C ) :   1.4268 B(  4-C ,  6-C ) :   0.9104 B(  5-C , 74-H ) :   0.9936
B(  6-C ,  7-C ) :   0.9305 B(  6-C , 28-C ) :   1.0269 B(  6-C , 29-C ) :   1.0098
B(  7-C ,  8-C ) :   1.4361 B(  7-C ,  9-C ) :   1.3797 B(  8-C , 11-S ) :   1.1236
B(  9-C , 10-C ) :   1.3186 B(  9-C , 75-H ) :   1.0163 B( 10-C , 11-S ) :   1.0722
B( 10-C , 12-C ) :   1.3140 B( 12-C , 13-C ) :   1.4929 B( 12-C , 76-H ) :   0.9392
B( 13-C , 14-C ) :   1.1075 B( 13-C , 17-C ) :   0.9873 B( 14-C , 15-C ) :   1.0004
B( 14-C , 23-C ) :   1.6298 B( 15-C , 16-C ) :   1.3337 B( 15-C , 18-C ) :   1.3715
B( 16-C , 17-C ) :   0.9579 B( 16-C , 21-C ) :   1.3757 B( 17-C , 22-O ) :   2.1301
B( 18-C , 19-C ) :   1.3701 B( 18-C , 77-H ) :   0.9829 B( 19-C , 20-C ) :   1.4097
B( 19-C , 70-Cl) :   1.0795 B( 20-C , 21-C ) :   1.3505 B( 20-C , 69-Cl) :   1.0498
B( 21-C , 78-H ) :   1.0123 B( 23-C , 24-C ) :   1.1317 B( 23-C , 25-C ) :   1.1360
B( 24-C , 27-N ) :   2.9694 B( 25-C , 26-N ) :   2.9525 B( 28-C , 67-C ) :   1.0901
B( 28-C , 79-H ) :   0.9460 B( 28-C , 80-H ) :   0.9489 B( 29-C , 68-C ) :   1.1030
B( 29-C , 81-H ) :   0.9474 B( 29-C , 82-H ) :   0.9454 B( 30-C , 31-C ) :   1.3863
B( 30-C , 35-C ) :   1.3375 B( 31-C , 32-C ) :   0.9334 B( 31-C , 38-C ) :   1.4121
B( 32-C , 33-C ) :   0.9950 B( 32-C , 34-C ) :   0.9970 B( 33-C , 65-C ) :   1.1012
B( 33-C , 83-H ) :   0.9455 B( 33-C , 84-H ) :   0.9455 B( 34-C , 66-C ) :   1.1019
B( 34-C , 85-H ) :   0.9457 B( 34-C , 86-H ) :   0.9456 B( 35-C , 36-C ) :   1.4254
B( 35-C , 87-H ) :   0.9901 B( 36-C , 37-C ) :   1.3804 B( 36-C , 39-C ) :   0.9270
B( 37-C , 38-C ) :   1.3248 B( 37-C , 41-C ) :   1.0874 B( 38-C , 88-H ) :   0.9978
B( 39-C , 40-C ) :   0.9364 B( 39-C , 42-C ) :   0.9973 B( 39-C , 43-C ) :   1.0011
B( 40-C , 41-C ) :   1.4443 B( 40-C , 44-C ) :   1.3779 B( 41-C , 46-S ) :   1.1248
B( 42-C , 63-C ) :   1.1022 B( 42-C , 89-H ) :   0.9475 B( 42-C , 90-H ) :   0.9460
B( 43-C , 64-C ) :   1.0981 B( 43-C , 91-H ) :   0.9458 B( 43-C , 92-H ) :   0.9458
B( 44-C , 45-C ) :   1.3227 B( 44-C , 93-H ) :   1.0099 B( 45-C , 46-S ) :   1.0704
B( 45-C , 47-C ) :   1.3136 B( 47-C , 48-C ) :   1.4911 B( 47-C , 94-H ) :   0.9398
B( 48-C , 49-C ) :   1.1091 B( 48-C , 52-C ) :   0.9858 B( 49-C , 50-C ) :   0.9992
B( 49-C , 54-C ) :   1.6289 B( 50-C , 51-C ) :   1.3344 B( 50-C , 59-C ) :   1.3708
B( 51-C , 52-C ) :   0.9577 B( 51-C , 62-C ) :   1.3735 B( 52-C , 53-O ) :   2.1304
B( 54-C , 55-C ) :   1.1326 B( 54-C , 57-C ) :   1.1353 B( 55-C , 56-N ) :   2.9676
B( 57-C , 58-N ) :   2.9535 B( 59-C , 60-C ) :   1.3679 B( 59-C , 95-H ) :   0.9843
B( 60-C , 61-C ) :   1.4105 B( 60-C , 71-Cl) :   1.0799 B( 61-C , 62-C ) :   1.3498
B( 61-C , 72-Cl) :   1.0494 B( 62-C , 96-H ) :   1.0133 B( 63-C , 97-H ) :   0.9657
B( 63-C , 98-H ) :   0.9662 B( 63-C , 99-H ) :   0.9634 B( 64-C ,100-H ) :   0.9653
B( 64-C ,101-H ) :   0.9672 B( 64-C ,102-H ) :   0.9673 B( 65-C ,103-H ) :   0.9640
B( 65-C ,104-H ) :   0.9663 B( 65-C ,105-H ) :   0.9661 B( 66-C ,106-H ) :   0.9641
B( 66-C ,107-H ) :   0.9659 B( 66-C ,108-H ) :   0.9655 B( 67-C ,109-H ) :   0.9681
B( 67-C ,110-H ) :   0.9709 B( 67-C ,111-H ) :   0.9665 B( 68-C ,112-H ) :   0.9636
B( 68-C ,113-H ) :   0.9660 B( 68-C ,114-H ) :   0.9673

-----------------------------------------------------------------------------
         ABSORPTION SPECTRUM VIA TRANSITION ELECTRIC DIPOLE MOMENTS
-----------------------------------------------------------------------------
State   Energy  Wavelength   fosc         T2         TX        TY        TZ
        (cm-1)    (nm)                  (au**2)     (au)      (au)      (au)
-----------------------------------------------------------------------------
   0   20658.4    484.1   3.654272843  58.23449  -6.36841   2.95370  -2.99224
   1   25417.3    393.4   0.045621797   0.59091  -0.22768   0.15807   0.71699
   2   29471.0    339.3   0.059903926   0.66917  -0.68163   0.35206  -0.28391
   3   30000.5    333.3   0.050745130   0.55685  -0.09013   0.32569   0.66532
   4   34806.5    287.3   0.017178937   0.16248   0.35393  -0.09503   0.16789
   5   34901.9    286.5   0.226502687   2.13649   0.19467  -0.82721  -1.18925
   6   36324.8    275.3   0.979089743   8.87350  -0.38173   1.65116   2.44979
   7   37657.4    265.6   0.009588820   0.08383  -0.11385   0.06916   0.25706
   8   38735.3    258.2   0.218157901   1.85413   1.14986  -0.38727   0.61804
   9   39512.0    253.1   0.377688029   3.14688  -0.24109   1.08380   1.38352
  10   40010.6    249.9   0.108244989   0.89065  -0.82715   0.36348  -0.27268

Dispersion correction           -0.074298607
FINAL SINGLE POINT ENERGY     -5352.834493241585

DIPOLE MOMENT
-------------
                                X             Y             Z
Electronic contribution:    -21.51324      49.17479      87.43061
Nuclear contribution   :     21.73300     -48.77122     -87.43976
                        -----------------------------------------
Total Dipole Moment    :      0.21976       0.40356      -0.00915
                        -----------------------------------------
Magnitude (a.u.)       :      0.45961
Magnitude (Debye)      :      1.16824

Rotational constants in cm-1:     0.001671     0.000201     0.000182
Rotational constants in MHz :    50.101066     6.039965     5.446848

                             ****ORCA TERMINATED NORMALLY****
TOTAL RUN TIME: 0 days 0 hours 13 minutes 7 seconds 998 msec
