                         Program Version 4.2.0 -  RELEASE  -
|  1> # ORCA input file
|  2> # SCF done       -186.637263090122          0.000947923596
|  3> ! wb97x-d3 def2-SVP def2/J RIJCOSX Grid4 TightSCF
|  4> %maxcore 5000
|  5> %tddft
|  6>     Mode sTDDFT
|  7>     Ethresh 5.0
|  8>     maxcore 5000
|  9> end
| 10>
| 11> %pal
| 12>   nprocs 6
| 13>   end
| 14> * xyz 0 1
| 15>    C       -6.13042        -1.38703         3.92611
| 16>    O       -5.77182        -2.50790         4.24286
| 17>    C       -6.90339        -0.44861         4.76076
| 18>    C       -7.36849        -0.61948         6.04619
| 19>    C       -8.08072         0.41689         6.65044
| 20>    C       -8.29923         1.59034         5.93552
| 21>    C       -7.83392         1.76791         4.63960
| 22>    C       -7.12681         0.73843         4.03998
| 23>    C       -6.51555         0.61197         2.71918
| 24>    C       -6.55897         1.56707         1.73533
| 25>    C       -7.20054         2.81566         1.87334
| 26>    N       -7.69879         3.84953         1.91349
| 27>    C       -5.99202         1.45907         0.44910
| 28>    N       -5.56210         1.45675        -0.61695
| 29>    C       -5.88787        -0.69379         2.65564
| 30>    C       -5.17162        -1.18574         1.59365
| 31>    C       -4.52836        -2.41664         1.41389
| 32>    C       -3.82684        -2.71597         0.23610
| 33>    C       -3.28349        -3.98212         0.24441
| 34>    C       -3.54228        -4.65481         1.44054
| 35>    S       -4.47342        -3.75318         2.55241
| 36>    C       -2.92952        -5.94499         1.42272
| 37>    C       -2.27053        -6.08293         0.17903
| 38>    C       -2.42256        -4.82558        -0.66354
| 39>    C       -3.13025        -5.18780        -1.98284
| 40>    C       -3.41868        -4.01252        -2.90743
| 41>    C       -1.08105        -4.08521        -0.85386
| 42>    C       -0.03560        -4.80885        -1.69177
| 43>    C       -1.65683        -7.27287        -0.13952
| 44>    C       -1.65352        -8.28239         0.81990
| 45>    C       -2.26182        -8.12053         2.07914
| 46>    C       -2.93841        -6.95834         2.37728
| 47>    C       -2.11296        -9.37939         2.90940
| 48>    C       -1.24596        -9.15995         4.16749
| 49>    C       -1.82626        -8.23617         5.23011
| 50>    C       -3.52813        -9.91684         3.21061
| 51>    C       -3.59849       -11.22762         3.98306
| 52>    C       -1.33892       -10.27453         1.96293
| 53>    C       -1.08881        -9.61085         0.74613
| 54>    C       -0.38036       -10.21345        -0.29083
| 55>    C        0.08957       -11.48952        -0.08793
| 56>    C       -0.13487       -12.14220         1.14619
| 57>    C       -0.84143       -11.54078         2.18305
| 58>    C        0.49585       -13.42158         1.06023
| 59>    C        1.10352       -13.58771        -0.18293
| 60>    C        0.88675       -12.36712        -1.03324
| 61>    C        2.22385       -11.71313        -1.42772
| 62>    C        3.08460       -11.34729        -0.22466
| 63>    C        0.08223       -12.70393        -2.30311
| 64>    C       -1.26093       -13.35752        -2.00144
| 65>    C        1.74660       -14.80382        -0.32364
| 66>    C        1.64133       -15.59227         0.81927
| 67>    S        0.70031       -14.77578         2.07593
| 68>    C        2.11170       -16.87520         1.14467
| 69>    C        2.93797       -17.74212         0.47710
| 70>    C        3.30140       -19.05186         0.99502
| 71>    C        2.71599       -19.72588         2.03593
| 72>    C        3.12457       -21.00219         2.47707
| 73>    N        3.40202       -22.03687         2.89098
| 74>    C        1.61074       -19.29083         2.79722
| 75>    N        0.70657       -19.03254         3.45800
| 76>    C        4.37593       -19.57808         0.16021
| 77>    C        5.13531       -20.73550         0.24038
| 78>    C        6.09834       -20.96678        -0.73031
| 79>    C        6.32582       -20.08075        -1.78113
| 80>    C        5.56418       -18.91688        -1.85836
| 81>    C        4.60788       -18.67933        -0.89346
| 82>    C        3.70145       -17.52051        -0.77068
| 83>    O        3.63753       -16.59326        -1.55389
| 84>    C        7.38887       -20.36127        -2.79506
| 85>    C       -8.59750         0.25237         8.04414
| 86>    H       -7.17877        -1.54424         6.57057
| 87>    H       -8.84941         2.39406         6.40296
| 88>    H       -8.02716         2.69571         4.12676
| 89>    H       -5.06552        -0.52954         0.73803
| 90>    H       -3.74257        -1.99650        -0.55899
| 91>    H       -2.51865        -5.92032        -2.51162
| 92>    H       -4.07339        -5.67757        -1.72580
| 93>    H       -3.91043        -4.37352        -3.80823
| 94>    H       -4.07912        -3.29508        -2.42951
| 95>    H       -2.50423        -3.50566        -3.20306
| 96>    H       -1.29534        -3.11483        -1.30461
| 97>    H       -0.66627        -3.89720         0.14021
| 98>    H       -0.41128        -5.03778        -2.68542
| 99>    H        0.83973        -4.17196        -1.80138
|100>    H        0.27901        -5.73025        -1.20988
|101>    H       -1.20025        -7.43966        -1.10244
|102>    H       -3.47665        -6.81512         3.30072
|103>    H       -1.04833       -10.13545         4.61465
|104>    H       -0.28521        -8.75591         3.83594
|105>    H       -2.79750        -8.58328         5.57178
|106>    H       -1.15675        -8.21306         6.08764
|107>    H       -1.92448        -7.22135         4.85595
|108>    H       -4.06791        -9.14768         3.76492
|109>    H       -4.04057       -10.04445         2.25291
|110>    H       -3.06394       -11.16303         4.92690
|111>    H       -4.63912       -11.45867         4.20133
|112>    H       -3.19045       -12.04841         3.40027
|113>    H       -0.20238        -9.68777        -1.21678
|114>    H       -0.96880       -12.06252         3.11837
|115>    H        2.77164       -12.40851        -2.06643
|116>    H        2.01350       -10.81403        -2.01048
|117>    H        3.34245       -12.23509         0.34802
|118>    H        4.00655       -10.87566        -0.55614
|119>    H        2.55921       -10.65536         0.43040
|120>    H       -0.08166       -11.78215        -2.86502
|121>    H        0.68124       -13.37437        -2.92233
|122>    H       -1.87896       -12.70471        -1.38856
|123>    H       -1.79127       -13.56344        -2.92810
|124>    H       -1.12260       -14.29715        -1.47163
|125>    H        2.28070       -15.13242        -1.19551
|126>    H        1.76632       -17.21282         2.11521
|127>    H        4.99677       -21.44941         1.03547
|128>    H        6.69250       -21.86704        -0.66906
|129>    H        5.71081       -18.20453        -2.65662
|130>    H        7.14174       -19.90764        -3.75171
|131>    H        8.33791       -19.94160        -2.45907
|132>    H        7.52522       -21.43133        -2.93146
|133>    H       -9.32143        -0.56101         8.08169
|134>    H       -7.78327        -0.00010         8.72183
|135>    H       -9.07760         1.16159         8.39569
|136> *
|137>
|138>                          ****END OF INPUT****

CARTESIAN COORDINATES (ANGSTROEM)
---------------------------------
  C     -6.130420   -1.387030    3.926110
  O     -5.771820   -2.507900    4.242860
  C     -6.903390   -0.448610    4.760760
  C     -7.368490   -0.619480    6.046190
  C     -8.080720    0.416890    6.650440
  C     -8.299230    1.590340    5.935520
  C     -7.833920    1.767910    4.639600
  C     -7.126810    0.738430    4.039980
  C     -6.515550    0.611970    2.719180
  C     -6.558970    1.567070    1.735330
  C     -7.200540    2.815660    1.873340
  N     -7.698790    3.849530    1.913490
  C     -5.992020    1.459070    0.449100
  N     -5.562100    1.456750   -0.616950
  C     -5.887870   -0.693790    2.655640
  C     -5.171620   -1.185740    1.593650
  C     -4.528360   -2.416640    1.413890
  C     -3.826840   -2.715970    0.236100
  C     -3.283490   -3.982120    0.244410
  C     -3.542280   -4.654810    1.440540
  S     -4.473420   -3.753180    2.552410
  C     -2.929520   -5.944990    1.422720
  C     -2.270530   -6.082930    0.179030
  C     -2.422560   -4.825580   -0.663540
  C     -3.130250   -5.187800   -1.982840
  C     -3.418680   -4.012520   -2.907430
  C     -1.081050   -4.085210   -0.853860
  C     -0.035600   -4.808850   -1.691770
  C     -1.656830   -7.272870   -0.139520
  C     -1.653520   -8.282390    0.819900
  C     -2.261820   -8.120530    2.079140
  C     -2.938410   -6.958340    2.377280
  C     -2.112960   -9.379390    2.909400
  C     -1.245960   -9.159950    4.167490
  C     -1.826260   -8.236170    5.230110
  C     -3.528130   -9.916840    3.210610
  C     -3.598490  -11.227620    3.983060
  C     -1.338920  -10.274530    1.962930
  C     -1.088810   -9.610850    0.746130
  C     -0.380360  -10.213450   -0.290830
  C      0.089570  -11.489520   -0.087930
  C     -0.134870  -12.142200    1.146190
  C     -0.841430  -11.540780    2.183050
  C      0.495850  -13.421580    1.060230
  C      1.103520  -13.587710   -0.182930
  C      0.886750  -12.367120   -1.033240
  C      2.223850  -11.713130   -1.427720
  C      3.084600  -11.347290   -0.224660
  C      0.082230  -12.703930   -2.303110
  C     -1.260930  -13.357520   -2.001440
  C      1.746600  -14.803820   -0.323640
  C      1.641330  -15.592270    0.819270
  S      0.700310  -14.775780    2.075930
  C      2.111700  -16.875200    1.144670
  C      2.937970  -17.742120    0.477100
  C      3.301400  -19.051860    0.995020
  C      2.715990  -19.725880    2.035930
  C      3.124570  -21.002190    2.477070
  N      3.402020  -22.036870    2.890980
  C      1.610740  -19.290830    2.797220
  N      0.706570  -19.032540    3.458000
  C      4.375930  -19.578080    0.160210
  C      5.135310  -20.735500    0.240380
  C      6.098340  -20.966780   -0.730310
  C      6.325820  -20.080750   -1.781130
  C      5.564180  -18.916880   -1.858360
  C      4.607880  -18.679330   -0.893460
  C      3.701450  -17.520510   -0.770680
  O      3.637530  -16.593260   -1.553890
  C      7.388870  -20.361270   -2.795060
  C     -8.597500    0.252370    8.044140
  H     -7.178770   -1.544240    6.570570
  H     -8.849410    2.394060    6.402960
  H     -8.027160    2.695710    4.126760
  H     -5.065520   -0.529540    0.738030
  H     -3.742570   -1.996500   -0.558990
  H     -2.518650   -5.920320   -2.511620
  H     -4.073390   -5.677570   -1.725800
  H     -3.910430   -4.373520   -3.808230
  H     -4.079120   -3.295080   -2.429510
  H     -2.504230   -3.505660   -3.203060
  H     -1.295340   -3.114830   -1.304610
  H     -0.666270   -3.897200    0.140210
  H     -0.411280   -5.037780   -2.685420
  H      0.839730   -4.171960   -1.801380
  H      0.279010   -5.730250   -1.209880
  H     -1.200250   -7.439660   -1.102440
  H     -3.476650   -6.815120    3.300720
  H     -1.048330  -10.135450    4.614650
  H     -0.285210   -8.755910    3.835940
  H     -2.797500   -8.583280    5.571780
  H     -1.156750   -8.213060    6.087640
  H     -1.924480   -7.221350    4.855950
  H     -4.067910   -9.147680    3.764920
  H     -4.040570  -10.044450    2.252910
  H     -3.063940  -11.163030    4.926900
  H     -4.639120  -11.458670    4.201330
  H     -3.190450  -12.048410    3.400270
  H     -0.202380   -9.687770   -1.216780
  H     -0.968800  -12.062520    3.118370
  H      2.771640  -12.408510   -2.066430
  H      2.013500  -10.814030   -2.010480
  H      3.342450  -12.235090    0.348020
  H      4.006550  -10.875660   -0.556140
  H      2.559210  -10.655360    0.430400
  H     -0.081660  -11.782150   -2.865020
  H      0.681240  -13.374370   -2.922330
  H     -1.878960  -12.704710   -1.388560
  H     -1.791270  -13.563440   -2.928100
  H     -1.122600  -14.297150   -1.471630
  H      2.280700  -15.132420   -1.195510
  H      1.766320  -17.212820    2.115210
  H      4.996770  -21.449410    1.035470
  H      6.692500  -21.867040   -0.669060
  H      5.710810  -18.204530   -2.656620
  H      7.141740  -19.907640   -3.751710
  H      8.337910  -19.941600   -2.459070
  H      7.525220  -21.431330   -2.931460
  H     -9.321430   -0.561010    8.081690
  H     -7.783270   -0.000100    8.721830
  H     -9.077600    1.161590    8.395690

 Total Charge           Charge          ....    0
 Multiplicity           Mult            ....    1
 Number of Electrons    NEL             ....  504
 Basis Dimension        Dim             .... 1252

ORBITAL ENERGIES
----------------

  NO   OCC          E(Eh)            E(eV)
   0   2.0000     -88.992927     -2421.6206
   1   2.0000     -88.987160     -2421.4637
   2   2.0000     -19.250114      -523.8222
   3   2.0000     -19.249863      -523.8154
   4   2.0000     -14.445320      -393.0771
   5   2.0000     -14.443685      -393.0326
   6   2.0000     -14.440319      -392.9410
   7   2.0000     -14.440199      -392.9378
   8   2.0000     -10.398321      -282.9527
   9   2.0000     -10.396014      -282.8899
  10   2.0000     -10.370456      -282.1945
  11   2.0000     -10.370395      -282.1928
  12   2.0000     -10.366814      -282.0953
  13   2.0000     -10.366336      -282.0823
  14   2.0000     -10.353213      -281.7252
  15   2.0000     -10.351652      -281.6828
  16   2.0000     -10.347042      -281.5573
  17   2.0000     -10.345451      -281.5140
  18   2.0000     -10.345316      -281.5104
  19   2.0000     -10.345217      -281.5077
  20   2.0000     -10.343155      -281.4515
  21   2.0000     -10.342287      -281.4279
  22   2.0000     -10.342251      -281.4270
  23   2.0000     -10.335584      -281.2455
  24   2.0000     -10.330098      -281.0963
  25   2.0000     -10.329750      -281.0868
  26   2.0000     -10.329405      -281.0774
  27   2.0000     -10.329027      -281.0671
  28   2.0000     -10.326125      -280.9881
  29   2.0000     -10.325620      -280.9744
  30   2.0000     -10.324557      -280.9455
  31   2.0000     -10.323242      -280.9097
  32   2.0000     -10.321877      -280.8726
  33   2.0000     -10.321572      -280.8643
  34   2.0000     -10.321501      -280.8623
  35   2.0000     -10.321321      -280.8574
  36   2.0000     -10.320611      -280.8381
  37   2.0000     -10.319235      -280.8007
  38   2.0000     -10.318888      -280.7912
  39   2.0000     -10.318877      -280.7909
  40   2.0000     -10.318134      -280.7707
  41   2.0000     -10.317996      -280.7669
  42   2.0000     -10.317802      -280.7617
  43   2.0000     -10.317672      -280.7581
  44   2.0000     -10.317356      -280.7495
  45   2.0000     -10.315955      -280.7114
  46   2.0000     -10.315754      -280.7059
  47   2.0000     -10.315550      -280.7004
  48   2.0000     -10.315373      -280.6956
  49   2.0000     -10.313944      -280.6567
  50   2.0000     -10.313409      -280.6421
  51   2.0000     -10.313128      -280.6345
  52   2.0000     -10.312308      -280.6122
  53   2.0000     -10.311952      -280.6025
  54   2.0000     -10.311157      -280.5808
  55   2.0000     -10.309977      -280.5487
  56   2.0000     -10.308791      -280.5165
  57   2.0000     -10.305691      -280.4321
  58   2.0000     -10.305220      -280.4193
  59   2.0000     -10.303947      -280.3846
  60   2.0000     -10.303449      -280.3711
  61   2.0000     -10.302025      -280.3324
  62   2.0000     -10.301807      -280.3264
  63   2.0000     -10.301665      -280.3225
  64   2.0000     -10.301643      -280.3220
  65   2.0000     -10.291316      -280.0409
  66   2.0000     -10.290118      -280.0083
  67   2.0000     -10.288804      -279.9726
  68   2.0000     -10.288735      -279.9707
  69   2.0000     -10.282675      -279.8058
  70   2.0000     -10.282480      -279.8005
  71   2.0000      -8.106426      -220.5871
  72   2.0000      -8.098692      -220.3766
  73   2.0000      -6.065688      -165.0558
  74   2.0000      -6.061764      -164.9490
  75   2.0000      -6.059029      -164.8746
  76   2.0000      -6.058258      -164.8536
  77   2.0000      -6.053727      -164.7303
  78   2.0000      -6.051264      -164.6633
  79   2.0000      -1.167181       -31.7606
  80   2.0000      -1.166028       -31.7292
  81   2.0000      -1.051181       -28.6041
  82   2.0000      -1.049675       -28.5631
  83   2.0000      -1.048684       -28.5361
  84   2.0000      -1.046052       -28.4645
  85   2.0000      -1.028847       -27.9964
  86   2.0000      -1.028383       -27.9837
  87   2.0000      -1.026690       -27.9377
  88   2.0000      -1.023153       -27.8414
  89   2.0000      -1.022746       -27.8303
  90   2.0000      -0.999530       -27.1986
  91   2.0000      -0.990139       -26.9431
  92   2.0000      -0.983079       -26.7509
  93   2.0000      -0.980370       -26.6772
  94   2.0000      -0.955392       -25.9975
  95   2.0000      -0.942608       -25.6497
  96   2.0000      -0.936301       -25.4780
  97   2.0000      -0.934472       -25.4283
  98   2.0000      -0.931296       -25.3418
  99   2.0000      -0.927909       -25.2497
 100   2.0000      -0.916900       -24.9501
 101   2.0000      -0.901589       -24.5335
 102   2.0000      -0.896399       -24.3923
 103   2.0000      -0.888494       -24.1771
 104   2.0000      -0.879952       -23.9447
 105   2.0000      -0.878168       -23.8962
 106   2.0000      -0.878009       -23.8918
 107   2.0000      -0.876767       -23.8580
 108   2.0000      -0.874120       -23.7860
 109   2.0000      -0.873718       -23.7751
 110   2.0000      -0.872312       -23.7368
 111   2.0000      -0.867562       -23.6075
 112   2.0000      -0.856705       -23.3121
 113   2.0000      -0.844619       -22.9833
 114   2.0000      -0.819547       -22.3010
 115   2.0000      -0.818127       -22.2624
 116   2.0000      -0.804305       -21.8863
 117   2.0000      -0.802032       -21.8244
 118   2.0000      -0.793254       -21.5855
 119   2.0000      -0.791156       -21.5285
 120   2.0000      -0.790705       -21.5162
 121   2.0000      -0.776837       -21.1388
 122   2.0000      -0.759230       -20.6597
 123   2.0000      -0.748944       -20.3798
 124   2.0000      -0.745871       -20.2962
 125   2.0000      -0.742417       -20.2022
 126   2.0000      -0.736142       -20.0314
 127   2.0000      -0.725226       -19.7344
 128   2.0000      -0.721971       -19.6458
 129   2.0000      -0.718762       -19.5585
 130   2.0000      -0.717594       -19.5267
 131   2.0000      -0.714174       -19.4337
 132   2.0000      -0.712639       -19.3919
 133   2.0000      -0.709524       -19.3071
 134   2.0000      -0.698925       -19.0187
 135   2.0000      -0.691319       -18.8117
 136   2.0000      -0.681046       -18.5322
 137   2.0000      -0.679065       -18.4783
 138   2.0000      -0.672755       -18.3066
 139   2.0000      -0.672330       -18.2950
 140   2.0000      -0.661291       -17.9947
 141   2.0000      -0.651217       -17.7205
 142   2.0000      -0.643818       -17.5192
 143   2.0000      -0.641739       -17.4626
 144   2.0000      -0.639474       -17.4010
 145   2.0000      -0.632438       -17.2095
 146   2.0000      -0.623307       -16.9610
 147   2.0000      -0.618470       -16.8294
 148   2.0000      -0.610927       -16.6242
 149   2.0000      -0.604939       -16.4612
 150   2.0000      -0.602150       -16.3853
 151   2.0000      -0.596783       -16.2393
 152   2.0000      -0.593253       -16.1432
 153   2.0000      -0.588594       -16.0164
 154   2.0000      -0.586644       -15.9634
 155   2.0000      -0.582091       -15.8395
 156   2.0000      -0.580917       -15.8076
 157   2.0000      -0.576855       -15.6970
 158   2.0000      -0.574671       -15.6376
 159   2.0000      -0.573023       -15.5927
 160   2.0000      -0.570130       -15.5140
 161   2.0000      -0.568973       -15.4825
 162   2.0000      -0.568260       -15.4631
 163   2.0000      -0.565154       -15.3786
 164   2.0000      -0.563423       -15.3315
 165   2.0000      -0.562408       -15.3039
 166   2.0000      -0.560352       -15.2480
 167   2.0000      -0.555603       -15.1187
 168   2.0000      -0.553497       -15.0614
 169   2.0000      -0.553054       -15.0494
 170   2.0000      -0.551748       -15.0138
 171   2.0000      -0.545132       -14.8338
 172   2.0000      -0.543173       -14.7805
 173   2.0000      -0.542584       -14.7645
 174   2.0000      -0.539910       -14.6917
 175   2.0000      -0.538784       -14.6611
 176   2.0000      -0.531944       -14.4749
 177   2.0000      -0.529324       -14.4036
 178   2.0000      -0.527620       -14.3573
 179   2.0000      -0.525017       -14.2864
 180   2.0000      -0.524077       -14.2609
 181   2.0000      -0.521945       -14.2028
 182   2.0000      -0.521275       -14.1846
 183   2.0000      -0.519365       -14.1326
 184   2.0000      -0.518243       -14.1021
 185   2.0000      -0.515947       -14.0396
 186   2.0000      -0.513943       -13.9851
 187   2.0000      -0.513395       -13.9702
 188   2.0000      -0.506671       -13.7872
 189   2.0000      -0.505237       -13.7482
 190   2.0000      -0.503686       -13.7060
 191   2.0000      -0.502821       -13.6825
 192   2.0000      -0.500531       -13.6201
 193   2.0000      -0.494852       -13.4656
 194   2.0000      -0.492598       -13.4043
 195   2.0000      -0.488695       -13.2981
 196   2.0000      -0.486256       -13.2317
 197   2.0000      -0.481902       -13.1132
 198   2.0000      -0.481107       -13.0916
 199   2.0000      -0.480478       -13.0745
 200   2.0000      -0.478739       -13.0272
 201   2.0000      -0.478396       -13.0178
 202   2.0000      -0.477935       -13.0053
 203   2.0000      -0.476543       -12.9674
 204   2.0000      -0.475559       -12.9406
 205   2.0000      -0.474979       -12.9248
 206   2.0000      -0.472941       -12.8694
 207   2.0000      -0.472685       -12.8624
 208   2.0000      -0.469667       -12.7803
 209   2.0000      -0.469468       -12.7749
 210   2.0000      -0.468966       -12.7612
 211   2.0000      -0.468045       -12.7362
 212   2.0000      -0.465286       -12.6611
 213   2.0000      -0.462911       -12.5964
 214   2.0000      -0.460995       -12.5443
 215   2.0000      -0.460561       -12.5325
 216   2.0000      -0.455494       -12.3946
 217   2.0000      -0.454751       -12.3744
 218   2.0000      -0.453998       -12.3539
 219   2.0000      -0.453216       -12.3326
 220   2.0000      -0.449123       -12.2213
 221   2.0000      -0.446577       -12.1520
 222   2.0000      -0.443806       -12.0766
 223   2.0000      -0.441299       -12.0084
 224   2.0000      -0.441013       -12.0006
 225   2.0000      -0.436908       -11.8889
 226   2.0000      -0.433738       -11.8026
 227   2.0000      -0.432469       -11.7681
 228   2.0000      -0.431623       -11.7451
 229   2.0000      -0.431442       -11.7401
 230   2.0000      -0.429828       -11.6962
 231   2.0000      -0.426980       -11.6187
 232   2.0000      -0.425278       -11.5724
 233   2.0000      -0.421373       -11.4661
 234   2.0000      -0.418800       -11.3961
 235   2.0000      -0.414942       -11.2911
 236   2.0000      -0.409838       -11.1523
 237   2.0000      -0.401975       -10.9383
 238   2.0000      -0.378881       -10.3099
 239   2.0000      -0.370509       -10.0821
 240   2.0000      -0.369855       -10.0643
 241   2.0000      -0.366578        -9.9751
 242   2.0000      -0.360917        -9.8211
 243   2.0000      -0.360313        -9.8046
 244   2.0000      -0.357934        -9.7399
 245   2.0000      -0.354984        -9.6596
 246   2.0000      -0.346562        -9.4304
 247   2.0000      -0.344780        -9.3820
 248   2.0000      -0.335220        -9.1218
 249   2.0000      -0.330147        -8.9838
 250   2.0000      -0.298519        -8.1231
 251   2.0000      -0.272295        -7.4095
 252   0.0000      -0.067283        -1.8309
 253   0.0000      -0.056798        -1.5455
 254   0.0000      -0.032292        -0.8787
 255   0.0000      -0.028621        -0.7788
 256   0.0000       0.004194         0.1141

MULLIKEN ATOMIC CHARGES
-----------------------
   0 C :    0.232467
   1 O :   -0.202158
   2 C :   -0.054477
   3 C :   -0.053421
   4 C :   -0.086731
   5 C :   -0.005618
   6 C :   -0.028171
   7 C :    0.007927
   8 C :    0.304592
   9 C :   -0.391938
  10 C :   -0.126493
  11 N :    0.099160
  12 C :   -0.123473
  13 N :    0.088484
  14 C :   -0.141767
  15 C :   -0.007308
  16 C :   -0.084003
  17 C :   -0.072684
  18 C :    0.062893
  19 C :   -0.027566
  20 S :    0.205724
  21 C :    0.017206
  22 C :    0.038698
  23 C :   -0.197061
  24 C :    0.019290
  25 C :   -0.015584
  26 C :    0.018188
  27 C :   -0.013450
  28 C :   -0.104716
  29 C :    0.063926
  30 C :    0.030941
  31 C :   -0.099985
  32 C :   -0.216563
  33 C :    0.017565
  34 C :   -0.014454
  35 C :    0.015203
  36 C :   -0.014011
  37 C :    0.024387
  38 C :    0.068098
  39 C :   -0.092253
  40 C :    0.003013
  41 C :    0.039917
  42 C :   -0.094301
  43 C :   -0.027518
  44 C :   -0.003383
  45 C :   -0.224321
  46 C :    0.031713
  47 C :   -0.017681
  48 C :    0.035203
  49 C :   -0.021167
  50 C :    0.004047
  51 C :   -0.157324
  52 S :    0.165875
  53 C :    0.064086
  54 C :   -0.136545
  55 C :    0.280262
  56 C :   -0.383884
  57 C :   -0.126974
  58 N :    0.103684
  59 C :   -0.137537
  60 N :    0.103147
  61 C :    0.005309
  62 C :   -0.026948
  63 C :   -0.004221
  64 C :   -0.086754
  65 C :   -0.049365
  66 C :   -0.052698
  67 C :    0.228176
  68 O :   -0.189116
  69 C :    0.048054
  70 C :    0.053708
  71 H :    0.009293
  72 H :    0.012592
  73 H :    0.025176
  74 H :    0.025994
  75 H :    0.031198
  76 H :    0.024721
  77 H :    0.032611
  78 H :    0.040842
  79 H :    0.032362
  80 H :    0.027631
  81 H :    0.028387
  82 H :    0.031912
  83 H :    0.023159
  84 H :    0.040904
  85 H :    0.033637
  86 H :   -0.017374
  87 H :   -0.005507
  88 H :    0.025702
  89 H :    0.030118
  90 H :    0.023642
  91 H :    0.040011
  92 H :    0.037415
  93 H :    0.028280
  94 H :    0.030836
  95 H :    0.023499
  96 H :    0.040145
  97 H :    0.036640
  98 H :   -0.019423
  99 H :   -0.008811
 100 H :    0.033579
 101 H :    0.020529
 102 H :    0.040045
 103 H :    0.034247
 104 H :    0.037595
 105 H :    0.021155
 106 H :    0.031674
 107 H :    0.039453
 108 H :    0.034966
 109 H :    0.041173
 110 H :    0.033996
 111 H :    0.029026
 112 H :    0.028524
 113 H :    0.012311
 114 H :    0.009132
 115 H :    0.043208
 116 H :    0.063072
 117 H :    0.045336
 118 H :    0.058086
 119 H :    0.054188
 120 H :    0.035786
Sum of atomic charges:   -0.0000000

LOEWDIN ATOMIC CHARGES
----------------------
   0 C :    0.091870
   1 O :   -0.171136
   2 C :   -0.044652
   3 C :    0.007209
   4 C :   -0.008558
   5 C :   -0.011753
   6 C :    0.005954
   7 C :   -0.027195
   8 C :    0.084297
   9 C :   -0.156282
  10 C :   -0.012696
  11 N :   -0.062653
  12 C :   -0.014369
  13 N :   -0.064917
  14 C :   -0.129431
  15 C :    0.064036
  16 C :   -0.192847
  17 C :   -0.011890
  18 C :   -0.051547
  19 C :   -0.155027
  20 S :    0.502889
  21 C :   -0.038852
  22 C :    0.012008
  23 C :   -0.038127
  24 C :   -0.018106
  25 C :   -0.059474
  26 C :   -0.016601
  27 C :   -0.062020
  28 C :   -0.024368
  29 C :   -0.013223
  30 C :    0.003684
  31 C :   -0.017506
  32 C :   -0.039434
  33 C :   -0.017467
  34 C :   -0.061224
  35 C :   -0.017427
  36 C :   -0.061421
  37 C :    0.003293
  38 C :   -0.010192
  39 C :   -0.023680
  40 C :    0.010766
  41 C :   -0.040851
  42 C :   -0.017572
  43 C :   -0.149924
  44 C :   -0.050370
  45 C :   -0.040871
  46 C :   -0.014898
  47 C :   -0.059853
  48 C :   -0.014295
  49 C :   -0.060133
  50 C :   -0.001150
  51 C :   -0.184533
  52 S :    0.451404
  53 C :    0.054214
  54 C :   -0.116789
  55 C :    0.082868
  56 C :   -0.154359
  57 C :   -0.012515
  58 N :   -0.061810
  59 C :   -0.019687
  60 N :   -0.059203
  61 C :   -0.027288
  62 C :    0.005053
  63 C :   -0.009391
  64 C :   -0.008343
  65 C :    0.004526
  66 C :   -0.044345
  67 C :    0.097101
  68 O :   -0.152053
  69 C :   -0.046967
  70 C :   -0.047300
  71 H :    0.038675
  72 H :    0.035058
  73 H :    0.041506
  74 H :    0.051488
  75 H :    0.038249
  76 H :    0.020223
  77 H :    0.031338
  78 H :    0.032744
  79 H :    0.025834
  80 H :    0.023216
  81 H :    0.023177
  82 H :    0.031418
  83 H :    0.021971
  84 H :    0.032652
  85 H :    0.024773
  86 H :    0.025911
  87 H :    0.030001
  88 H :    0.021117
  89 H :    0.030641
  90 H :    0.022545
  91 H :    0.032464
  92 H :    0.025800
  93 H :    0.021876
  94 H :    0.030992
  95 H :    0.022437
  96 H :    0.032695
  97 H :    0.025480
  98 H :    0.027582
  99 H :    0.029308
 100 H :    0.027597
 101 H :    0.021754
 102 H :    0.027232
 103 H :    0.027964
 104 H :    0.026243
 105 H :    0.022186
 106 H :    0.026716
 107 H :    0.026783
 108 H :    0.028254
 109 H :    0.027372
 110 H :    0.036141
 111 H :    0.044162
 112 H :    0.041741
 113 H :    0.035246
 114 H :    0.038125
 115 H :    0.036646
 116 H :    0.045747
 117 H :    0.036809
 118 H :    0.043800
 119 H :    0.042317
 120 H :    0.033395

  Mayer bond orders larger than 0.100000
B(  0-C ,  1-O ) :   2.1272 B(  0-C ,  2-C ) :   0.9598 B(  0-C , 14-C ) :   0.9766
B(  2-C ,  3-C ) :   1.4120 B(  2-C ,  7-C ) :   1.3253 B(  3-C ,  4-C ) :   1.3308
B(  3-C , 71-H ) :   1.0111 B(  4-C ,  5-C ) :   1.4009 B(  4-C , 70-C ) :   1.0377
B(  5-C ,  6-C ) :   1.3851 B(  5-C , 72-H ) :   0.9873 B(  6-C ,  7-C ) :   1.3878
B(  6-C , 73-H ) :   0.9844 B(  7-C ,  8-C ) :   1.0042 B(  8-C ,  9-C ) :   1.6221
B(  8-C , 14-C ) :   1.0978 B(  9-C , 10-C ) :   1.1344 B(  9-C , 12-C ) :   1.1343
B( 10-C , 11-N ) :   2.9693 B( 12-C , 13-N ) :   2.9526 B( 14-C , 15-C ) :   1.5150
B( 15-C , 16-C ) :   1.2924 B( 15-C , 74-H ) :   0.9401 B( 16-C , 17-C ) :   1.3377
B( 16-C , 20-S ) :   1.0767 B( 17-C , 18-C ) :   1.3684 B( 17-C , 75-H ) :   1.0092
B( 18-C , 19-C ) :   1.4548 B( 18-C , 23-C ) :   0.9373 B( 19-C , 20-S ) :   1.1177
B( 19-C , 21-C ) :   1.0844 B( 21-C , 22-C ) :   1.3834 B( 21-C , 31-C ) :   1.3274
B( 22-C , 23-C ) :   0.9258 B( 22-C , 28-C ) :   1.4241 B( 23-C , 24-C ) :   1.0069
B( 23-C , 26-C ) :   0.9950 B( 24-C , 25-C ) :   1.0969 B( 24-C , 76-H ) :   0.9443
B( 24-C , 77-H ) :   0.9460 B( 25-C , 78-H ) :   0.9673 B( 25-C , 79-H ) :   0.9678
B( 25-C , 80-H ) :   0.9656 B( 26-C , 27-C ) :   1.1016 B( 26-C , 81-H ) :   0.9477
B( 26-C , 82-H ) :   0.9447 B( 27-C , 83-H ) :   0.9658 B( 27-C , 84-H ) :   0.9668
B( 27-C , 85-H ) :   0.9635 B( 28-C , 29-C ) :   1.3377 B( 28-C , 86-H ) :   0.9896
B( 29-C , 30-C ) :   1.3904 B( 29-C , 38-C ) :   1.0010 B( 30-C , 31-C ) :   1.4105
B( 30-C , 32-C ) :   0.9325 B( 31-C , 87-H ) :   0.9970 B( 32-C , 33-C ) :   0.9971
B( 32-C , 35-C ) :   0.9972 B( 32-C , 37-C ) :   0.9342 B( 33-C , 34-C ) :   1.1008
B( 33-C , 88-H ) :   0.9453 B( 33-C , 89-H ) :   0.9454 B( 34-C , 90-H ) :   0.9659
B( 34-C , 91-H ) :   0.9664 B( 34-C , 92-H ) :   0.9643 B( 35-C , 36-C ) :   1.1017
B( 35-C , 93-H ) :   0.9454 B( 35-C , 94-H ) :   0.9450 B( 36-C , 95-H ) :   0.9659
B( 36-C , 96-H ) :   0.9663 B( 36-C , 97-H ) :   0.9641 B( 37-C , 38-C ) :   1.3888
B( 37-C , 42-C ) :   1.4109 B( 38-C , 39-C ) :   1.3337 B( 39-C , 40-C ) :   1.4235
B( 39-C , 98-H ) :   1.0002 B( 40-C , 41-C ) :   1.3657 B( 40-C , 45-C ) :   0.9063
B( 41-C , 42-C ) :   1.3311 B( 41-C , 43-C ) :   1.0715 B( 42-C , 99-H ) :   0.9957
B( 43-C , 44-C ) :   1.4706 B( 43-C , 52-S ) :   1.1506 B( 44-C , 45-C ) :   0.9235
B( 44-C , 50-C ) :   1.3390 B( 45-C , 46-C ) :   1.0403 B( 45-C , 48-C ) :   1.0365
B( 46-C , 47-C ) :   1.0876 B( 46-C ,100-H ) :   0.9474 B( 46-C ,101-H ) :   0.9463
B( 47-C ,102-H ) :   0.9677 B( 47-C ,103-H ) :   0.9699 B( 47-C ,104-H ) :   0.9673
B( 48-C , 49-C ) :   1.0873 B( 48-C ,105-H ) :   0.9467 B( 48-C ,106-H ) :   0.9482
B( 49-C ,107-H ) :   0.9673 B( 49-C ,108-H ) :   0.9697 B( 49-C ,109-H ) :   0.9680
B( 50-C , 51-C ) :   1.3927 B( 50-C ,110-H ) :   0.9860 B( 51-C , 52-S ) :   1.0863
B( 51-C , 53-C ) :   1.2453 B( 53-C , 54-C ) :   1.6018 B( 53-C ,111-H ) :   0.9149
B( 54-C , 55-C ) :   1.0905 B( 54-C , 67-C ) :   0.9515 B( 55-C , 56-C ) :   1.6315
B( 55-C , 61-C ) :   1.0050 B( 56-C , 57-C ) :   1.1318 B( 56-C , 59-C ) :   1.1280
B( 57-C , 58-N ) :   2.9737 B( 59-C , 60-N ) :   2.9747 B( 61-C , 62-C ) :   1.3761
B( 61-C , 66-C ) :   1.3336 B( 62-C , 63-C ) :   1.3975 B( 62-C ,112-H ) :   0.9843
B( 63-C , 64-C ) :   1.3873 B( 63-C ,113-H ) :   0.9897 B( 64-C , 65-C ) :   1.3441
B( 64-C , 69-C ) :   1.0387 B( 65-C , 66-C ) :   1.4053 B( 65-C ,114-H ) :   1.0077
B( 66-C , 67-C ) :   0.9576 B( 67-C , 68-O ) :   2.1420 B( 69-C ,115-H ) :   0.9652
B( 69-C ,116-H ) :   0.9560 B( 69-C ,117-H ) :   0.9655 B( 70-C ,118-H ) :   0.9584
B( 70-C ,119-H ) :   0.9599 B( 70-C ,120-H ) :   0.9675

-----------------------------------------------------------------------------
         ABSORPTION SPECTRUM VIA TRANSITION ELECTRIC DIPOLE MOMENTS
-----------------------------------------------------------------------------
State   Energy  Wavelength   fosc         T2         TX        TY        TZ
        (cm-1)    (nm)                  (au**2)     (au)      (au)      (au)
-----------------------------------------------------------------------------
   0   20921.6    478.0   3.699616065  58.21538   3.36988  -6.82274  -0.55629
   1   25844.3    386.9   0.038398403   0.48913  -0.28316  -0.12265   0.62762
   2   30141.6    331.8   0.030948419   0.33802  -0.32088   0.41070   0.25765
   3   30717.0    325.6   0.001358946   0.01456   0.04042  -0.11308  -0.01199
   4   34013.2    294.0   0.482806641   4.67306   1.09191   0.27663  -1.84506
   5   35239.1    283.8   0.050603705   0.47275  -0.32262   0.35877  -0.48985
   6   36476.5    274.1   0.041394974   0.37360  -0.40366   0.34895  -0.29816
   7   37446.3    267.0   0.078818608   0.69294   0.62489  -0.54994  -0.00460
   8   38463.0    260.0   0.126263762   1.08071  -0.61956  -0.46736   0.69169
   9   38670.8    258.6   1.073684142   9.14047  -1.10289  -0.90217   2.66649
  10   39513.5    253.1   0.454753767   3.78884  -1.20140   0.59977   1.40917

Dispersion correction           -0.074598376
FINAL SINGLE POINT ENERGY     -3593.594101533231

DIPOLE MOMENT
-------------
                                X             Y             Z
Electronic contribution:    -13.20440      -3.02384      21.25605
Nuclear contribution   :     14.56493       2.95108     -21.74210
                        -----------------------------------------
Total Dipole Moment    :      1.36053      -0.07277      -0.48605
                        -----------------------------------------
Magnitude (a.u.)       :      1.44657
Magnitude (Debye)      :      3.67690

Rotational constants in cm-1:     0.002886     0.000246     0.000231
Rotational constants in MHz :    86.519610     7.389386     6.922964

                             ****ORCA TERMINATED NORMALLY****
TOTAL RUN TIME: 0 days 0 hours 12 minutes 46 seconds 872 msec
