                         Program Version 4.2.0 -  RELEASE  -
|  1> # ORCA input file
|  2> # SCF done       -222.430500311957          0.000862534354
|  3> ! wb97x-d3 def2-SVP def2/J RIJCOSX Grid4 TightSCF
|  4> %maxcore 5000
|  5> %tddft
|  6>     Mode sTDDFT
|  7>     Ethresh 5.0
|  8>     maxcore 5000
|  9> end
| 10>
| 11> %pal
| 12>   nprocs 6
| 13>   end
| 14> * xyz 0 1
| 15>    C        0.32819        -0.60364        -2.98654
| 16>    O       -0.01362        -1.74683        -2.74402
| 17>    C       -0.57479         0.55726        -3.14430
| 18>    C       -1.95174         0.59044        -3.05762
| 19>    C       -2.57731         1.81273        -3.24489
| 20>    C       -1.82962         2.95944        -3.51035
| 21>    C       -0.44519         2.92457        -3.59679
| 22>    C        0.18811         1.70611        -3.41085
| 23>    C        1.60489         1.33410        -3.43569
| 24>    C        2.64064         2.20499        -3.66455
| 25>    C        4.01046         1.87130        -3.69128
| 26>    N        5.14410         1.68663        -3.73165
| 27>    C        2.47415         3.58419        -3.91064
| 28>    N        2.41079         4.71324        -4.10761
| 29>    C        1.68329        -0.08727        -3.17687
| 30>    F       -2.45923         4.12692        -3.68704
| 31>    C        2.84668        -0.82296        -3.12477
| 32>    F       -3.91195         1.89302        -3.17021
| 33>    C       -2.71582       -14.45907        -2.10556
| 34>    O       -2.50923       -13.29034        -2.38318
| 35>    C       -3.97357       -15.19727        -2.35378
| 36>    C       -5.15503       -14.72616        -2.88844
| 37>    C       -6.20673       -15.62054        -3.01031
| 38>    C       -6.06075       -16.94666        -2.60656
| 39>    C       -4.87035       -17.42039        -2.07302
| 40>    C       -3.81524       -16.53166        -1.94543
| 41>    C       -2.45643       -16.70334        -1.42353
| 42>    C       -1.93457       -17.89171        -0.97361
| 43>    C       -0.62808       -18.08433        -0.48114
| 44>    N        0.41657       -18.32691        -0.06709
| 45>    C       -2.64523       -19.10949        -0.95399
| 46>    N       -3.16498       -20.13231        -0.90980
| 47>    C       -1.80239       -15.41737        -1.49062
| 48>    F       -7.09350       -17.78880        -2.73342
| 49>    C       -0.53281       -15.14480        -1.02067
| 50>    F       -7.37478       -15.20481        -3.51893
| 51>    C        2.63856        -5.93699        -2.04599
| 52>    C        3.02011        -4.61176        -2.37544
| 53>    C        4.29835        -4.13422        -2.63810
| 54>    C        4.33738        -2.77844        -2.91000
| 55>    C        3.06057        -2.18074        -2.88676
| 56>    S        1.82784        -3.36735        -2.51404
| 57>    C        5.60695        -2.06513        -3.24775
| 58>    C        5.77659        -1.92991        -4.76372
| 59>    C        3.39504        -6.94115        -1.44068
| 60>    C        2.65836        -8.14590        -1.37259
| 61>    C        1.35823        -8.04925        -1.84526
| 62>    S        1.00008        -6.45648        -2.41456
| 63>    S        2.99314        -9.72150        -0.75064
| 64>    C        1.36021       -10.26345        -1.16205
| 65>    C        0.58646        -9.22772        -1.69557
| 66>    N        4.65451        -6.78295        -0.89631
| 67>    C        4.99887        -5.61018        -0.20499
| 68>    C        5.53219        -7.88035        -0.90562
| 69>    C        4.04213        -4.89297         0.50859
| 70>    C        4.38899        -3.71693         1.14445
| 71>    C        5.69044        -3.24672         1.08958
| 72>    C        6.65022        -3.96966         0.40108
| 73>    C        6.31112        -5.14238        -0.24547
| 74>    C        5.63355        -8.67477        -2.04567
| 75>    C        6.48210        -9.76530        -2.05646
| 76>    C        7.24232       -10.06991        -0.94007
| 77>    C        7.14931        -9.27614         0.19190
| 78>    C        6.29837        -8.18853         0.21588
| 79>    N       -0.75122        -9.27479        -2.02247
| 80>    C       -1.70553        -9.86721        -1.18614
| 81>    C       -1.16840        -8.51173        -3.13121
| 82>    C       -0.44434        -8.58103        -4.31871
| 83>    C       -0.82480        -7.81784        -5.40584
| 84>    C       -1.92896        -6.98623        -5.32206
| 85>    C       -2.65402        -6.92110        -4.14332
| 86>    C       -2.27865        -7.67612        -3.04902
| 87>    C       -1.48977        -9.96596         0.18718
| 88>    C       -2.43584       -10.56626         0.99540
| 89>    C       -3.60949       -11.06037         0.45206
| 90>    C       -3.83445       -10.94683        -0.91033
| 91>    C       -2.89188       -10.35940        -1.72868
| 92>    C        1.07002       -11.63305        -0.98658
| 93>    S       -0.37092       -12.39957        -1.55718
| 94>    C        0.18373       -13.95361        -0.96853
| 95>    C        1.46526       -13.84373        -0.37605
| 96>    C        1.94151       -12.55091        -0.39592
| 97>    C        2.19042       -15.01674         0.20772
| 98>    C        3.56624       -14.67820         0.76846
| 99>    H       -2.52446        -0.29969        -2.85194
|100>    H        0.08386         3.84004        -3.80386
|101>    H        3.75878        -0.26813        -3.29625
|102>    H       -5.26164       -13.70026        -3.20243
|103>    H       -4.81067       -18.45466        -1.77704
|104>    H       -0.00345       -15.98569        -0.59392
|105>    H        5.16931        -4.76290        -2.66217
|106>    H        5.62985        -1.07345        -2.79348
|107>    H        6.44263        -2.63811        -2.84237
|108>    H        4.95910        -1.35619        -5.19334
|109>    H        6.70871        -1.41890        -4.98748
|110>    H        5.79282        -2.91118        -5.23259
|111>    H        3.02797        -5.25918         0.56482
|112>    H        3.63702        -3.16802         1.69105
|113>    H        5.95612        -2.32525         1.58389
|114>    H        7.66857        -3.61359         0.35806
|115>    H        7.05811        -5.69993        -0.79195
|116>    H        5.04872        -8.42764        -2.91998
|117>    H        6.55378       -10.37545        -2.94422
|118>    H        7.90556       -10.92105        -0.95158
|119>    H        7.73686        -9.51067         1.06675
|120>    H        6.21555        -7.57667         1.10180
|121>    H        0.41054        -9.23893        -4.38066
|122>    H       -0.25932        -7.87727        -6.32368
|123>    H       -2.22365        -6.39053        -6.17222
|124>    H       -3.51190        -6.26997        -4.07151
|125>    H       -2.83380        -7.61701        -2.12481
|126>    H       -0.58165        -9.57121         0.61903
|127>    H       -2.25514       -10.64317         2.05740
|128>    H       -4.34429       -11.53124         1.08733
|129>    H       -4.74669       -11.33048        -1.34049
|130>    H       -3.05494       -10.29997        -2.79295
|131>    H        2.89089       -12.24496         0.00550
|132>    H        1.57985       -15.45247         1.00425
|133>    H        2.30016       -15.78511        -0.56321
|134>    H        3.48934       -13.95571         1.57746
|135>    H        4.02872       -15.58054         1.16006
|136>    H        4.21177       -14.27173        -0.00646
|137> *
|138>
|139>                          ****END OF INPUT****

CARTESIAN COORDINATES (ANGSTROEM)
---------------------------------
  C      0.328190   -0.603640   -2.986540
  O     -0.013620   -1.746830   -2.744020
  C     -0.574790    0.557260   -3.144300
  C     -1.951740    0.590440   -3.057620
  C     -2.577310    1.812730   -3.244890
  C     -1.829620    2.959440   -3.510350
  C     -0.445190    2.924570   -3.596790
  C      0.188110    1.706110   -3.410850
  C      1.604890    1.334100   -3.435690
  C      2.640640    2.204990   -3.664550
  C      4.010460    1.871300   -3.691280
  N      5.144100    1.686630   -3.731650
  C      2.474150    3.584190   -3.910640
  N      2.410790    4.713240   -4.107610
  C      1.683290   -0.087270   -3.176870
  F     -2.459230    4.126920   -3.687040
  C      2.846680   -0.822960   -3.124770
  F     -3.911950    1.893020   -3.170210
  C     -2.715820  -14.459070   -2.105560
  O     -2.509230  -13.290340   -2.383180
  C     -3.973570  -15.197270   -2.353780
  C     -5.155030  -14.726160   -2.888440
  C     -6.206730  -15.620540   -3.010310
  C     -6.060750  -16.946660   -2.606560
  C     -4.870350  -17.420390   -2.073020
  C     -3.815240  -16.531660   -1.945430
  C     -2.456430  -16.703340   -1.423530
  C     -1.934570  -17.891710   -0.973610
  C     -0.628080  -18.084330   -0.481140
  N      0.416570  -18.326910   -0.067090
  C     -2.645230  -19.109490   -0.953990
  N     -3.164980  -20.132310   -0.909800
  C     -1.802390  -15.417370   -1.490620
  F     -7.093500  -17.788800   -2.733420
  C     -0.532810  -15.144800   -1.020670
  F     -7.374780  -15.204810   -3.518930
  C      2.638560   -5.936990   -2.045990
  C      3.020110   -4.611760   -2.375440
  C      4.298350   -4.134220   -2.638100
  C      4.337380   -2.778440   -2.910000
  C      3.060570   -2.180740   -2.886760
  S      1.827840   -3.367350   -2.514040
  C      5.606950   -2.065130   -3.247750
  C      5.776590   -1.929910   -4.763720
  C      3.395040   -6.941150   -1.440680
  C      2.658360   -8.145900   -1.372590
  C      1.358230   -8.049250   -1.845260
  S      1.000080   -6.456480   -2.414560
  S      2.993140   -9.721500   -0.750640
  C      1.360210  -10.263450   -1.162050
  C      0.586460   -9.227720   -1.695570
  N      4.654510   -6.782950   -0.896310
  C      4.998870   -5.610180   -0.204990
  C      5.532190   -7.880350   -0.905620
  C      4.042130   -4.892970    0.508590
  C      4.388990   -3.716930    1.144450
  C      5.690440   -3.246720    1.089580
  C      6.650220   -3.969660    0.401080
  C      6.311120   -5.142380   -0.245470
  C      5.633550   -8.674770   -2.045670
  C      6.482100   -9.765300   -2.056460
  C      7.242320  -10.069910   -0.940070
  C      7.149310   -9.276140    0.191900
  C      6.298370   -8.188530    0.215880
  N     -0.751220   -9.274790   -2.022470
  C     -1.705530   -9.867210   -1.186140
  C     -1.168400   -8.511730   -3.131210
  C     -0.444340   -8.581030   -4.318710
  C     -0.824800   -7.817840   -5.405840
  C     -1.928960   -6.986230   -5.322060
  C     -2.654020   -6.921100   -4.143320
  C     -2.278650   -7.676120   -3.049020
  C     -1.489770   -9.965960    0.187180
  C     -2.435840  -10.566260    0.995400
  C     -3.609490  -11.060370    0.452060
  C     -3.834450  -10.946830   -0.910330
  C     -2.891880  -10.359400   -1.728680
  C      1.070020  -11.633050   -0.986580
  S     -0.370920  -12.399570   -1.557180
  C      0.183730  -13.953610   -0.968530
  C      1.465260  -13.843730   -0.376050
  C      1.941510  -12.550910   -0.395920
  C      2.190420  -15.016740    0.207720
  C      3.566240  -14.678200    0.768460
  H     -2.524460   -0.299690   -2.851940
  H      0.083860    3.840040   -3.803860
  H      3.758780   -0.268130   -3.296250
  H     -5.261640  -13.700260   -3.202430
  H     -4.810670  -18.454660   -1.777040
  H     -0.003450  -15.985690   -0.593920
  H      5.169310   -4.762900   -2.662170
  H      5.629850   -1.073450   -2.793480
  H      6.442630   -2.638110   -2.842370
  H      4.959100   -1.356190   -5.193340
  H      6.708710   -1.418900   -4.987480
  H      5.792820   -2.911180   -5.232590
  H      3.027970   -5.259180    0.564820
  H      3.637020   -3.168020    1.691050
  H      5.956120   -2.325250    1.583890
  H      7.668570   -3.613590    0.358060
  H      7.058110   -5.699930   -0.791950
  H      5.048720   -8.427640   -2.919980
  H      6.553780  -10.375450   -2.944220
  H      7.905560  -10.921050   -0.951580
  H      7.736860   -9.510670    1.066750
  H      6.215550   -7.576670    1.101800
  H      0.410540   -9.238930   -4.380660
  H     -0.259320   -7.877270   -6.323680
  H     -2.223650   -6.390530   -6.172220
  H     -3.511900   -6.269970   -4.071510
  H     -2.833800   -7.617010   -2.124810
  H     -0.581650   -9.571210    0.619030
  H     -2.255140  -10.643170    2.057400
  H     -4.344290  -11.531240    1.087330
  H     -4.746690  -11.330480   -1.340490
  H     -3.054940  -10.299970   -2.792950
  H      2.890890  -12.244960    0.005500
  H      1.579850  -15.452470    1.004250
  H      2.300160  -15.785110   -0.563210
  H      3.489340  -13.955710    1.577460
  H      4.028720  -15.580540    1.160060
  H      4.211770  -14.271730   -0.006460

 Total Charge           Charge          ....    0
 Multiplicity           Mult            ....    1
 Number of Electrons    NEL             ....  604
 Basis Dimension        Dim             .... 1382

ORBITAL ENERGIES
----------------

  NO   OCC          E(Eh)            E(eV)
   0   2.0000     -88.993095     -2421.6252
   1   2.0000     -88.992873     -2421.6192
   2   2.0000     -88.987582     -2421.4752
   3   2.0000     -88.986005     -2421.4323
   4   2.0000     -24.833647      -675.7579
   5   2.0000     -24.831630      -675.7030
   6   2.0000     -24.831496      -675.6994
   7   2.0000     -24.829236      -675.6379
   8   2.0000     -19.258484      -524.0500
   9   2.0000     -19.255123      -523.9585
  10   2.0000     -14.497070      -394.4853
  11   2.0000     -14.495542      -394.4438
  12   2.0000     -14.455412      -393.3518
  13   2.0000     -14.450395      -393.2152
  14   2.0000     -14.448887      -393.1742
  15   2.0000     -14.444787      -393.0626
  16   2.0000     -10.419071      -283.5173
  17   2.0000     -10.418375      -283.4984
  18   2.0000     -10.416585      -283.4497
  19   2.0000     -10.415764      -283.4273
  20   2.0000     -10.405914      -283.1593
  21   2.0000     -10.401781      -283.0468
  22   2.0000     -10.381449      -282.4936
  23   2.0000     -10.376893      -282.3696
  24   2.0000     -10.376685      -282.3640
  25   2.0000     -10.376365      -282.3553
  26   2.0000     -10.375684      -282.3367
  27   2.0000     -10.371178      -282.2141
  28   2.0000     -10.358871      -281.8792
  29   2.0000     -10.357016      -281.8287
  30   2.0000     -10.356289      -281.8090
  31   2.0000     -10.356165      -281.8056
  32   2.0000     -10.356074      -281.8031
  33   2.0000     -10.353984      -281.7462
  34   2.0000     -10.353568      -281.7349
  35   2.0000     -10.352581      -281.7080
  36   2.0000     -10.352190      -281.6974
  37   2.0000     -10.351909      -281.6898
  38   2.0000     -10.351078      -281.6671
  39   2.0000     -10.350747      -281.6582
  40   2.0000     -10.350609      -281.6544
  41   2.0000     -10.350261      -281.6449
  42   2.0000     -10.349325      -281.6195
  43   2.0000     -10.347846      -281.5792
  44   2.0000     -10.347076      -281.5582
  45   2.0000     -10.346775      -281.5501
  46   2.0000     -10.344648      -281.4922
  47   2.0000     -10.342063      -281.4219
  48   2.0000     -10.341546      -281.4078
  49   2.0000     -10.340184      -281.3707
  50   2.0000     -10.338868      -281.3349
  51   2.0000     -10.338509      -281.3251
  52   2.0000     -10.335493      -281.2431
  53   2.0000     -10.335098      -281.2323
  54   2.0000     -10.333268      -281.1825
  55   2.0000     -10.332600      -281.1643
  56   2.0000     -10.328042      -281.0403
  57   2.0000     -10.322465      -280.8886
  58   2.0000     -10.312819      -280.6261
  59   2.0000     -10.312649      -280.6215
  60   2.0000     -10.312327      -280.6127
  61   2.0000     -10.312272      -280.6112
  62   2.0000     -10.311657      -280.5945
  63   2.0000     -10.311533      -280.5911
  64   2.0000     -10.311228      -280.5828
  65   2.0000     -10.311176      -280.5814
  66   2.0000     -10.310851      -280.5725
  67   2.0000     -10.309573      -280.5377
  68   2.0000     -10.309448      -280.5343
  69   2.0000     -10.309123      -280.5255
  70   2.0000     -10.308733      -280.5149
  71   2.0000     -10.308292      -280.5029
  72   2.0000     -10.308217      -280.5008
  73   2.0000     -10.308040      -280.4960
  74   2.0000     -10.307826      -280.4902
  75   2.0000     -10.304832      -280.4087
  76   2.0000     -10.304370      -280.3962
  77   2.0000     -10.302877      -280.3555
  78   2.0000     -10.301962      -280.3306
  79   2.0000     -10.301888      -280.3286
  80   2.0000     -10.299351      -280.2596
  81   2.0000     -10.297410      -280.2068
  82   2.0000     -10.295721      -280.1608
  83   2.0000     -10.294583      -280.1298
  84   2.0000      -8.105423      -220.5598
  85   2.0000      -8.105027      -220.5490
  86   2.0000      -8.099810      -220.4070
  87   2.0000      -8.097045      -220.3318
  88   2.0000      -6.065365      -165.0470
  89   2.0000      -6.065051      -165.0384
  90   2.0000      -6.061234      -164.9346
  91   2.0000      -6.060931      -164.9263
  92   2.0000      -6.059464      -164.8864
  93   2.0000      -6.056944      -164.8178
  94   2.0000      -6.056720      -164.8117
  95   2.0000      -6.056420      -164.8036
  96   2.0000      -6.054880      -164.7617
  97   2.0000      -6.052103      -164.6861
  98   2.0000      -6.052079      -164.6854
  99   2.0000      -6.049428      -164.6133
 100   2.0000      -1.362886       -37.0860
 101   2.0000      -1.360407       -37.0186
 102   2.0000      -1.347813       -36.6759
 103   2.0000      -1.345366       -36.6093
 104   2.0000      -1.176545       -32.0154
 105   2.0000      -1.172643       -31.9092
 106   2.0000      -1.126304       -30.6483
 107   2.0000      -1.122089       -30.5336
 108   2.0000      -1.060944       -28.8698
 109   2.0000      -1.056831       -28.7578
 110   2.0000      -1.051267       -28.6064
 111   2.0000      -1.042886       -28.3784
 112   2.0000      -1.039024       -28.2733
 113   2.0000      -1.036935       -28.2164
 114   2.0000      -1.032798       -28.1039
 115   2.0000      -1.030284       -28.0355
 116   2.0000      -1.028291       -27.9812
 117   2.0000      -0.999877       -27.2080
 118   2.0000      -0.996317       -27.1112
 119   2.0000      -0.995101       -27.0781
 120   2.0000      -0.991899       -26.9909
 121   2.0000      -0.990505       -26.9530
 122   2.0000      -0.979474       -26.6528
 123   2.0000      -0.974733       -26.5238
 124   2.0000      -0.947500       -25.7828
 125   2.0000      -0.941991       -25.6329
 126   2.0000      -0.937052       -25.4985
 127   2.0000      -0.928908       -25.2769
 128   2.0000      -0.923486       -25.1293
 129   2.0000      -0.923251       -25.1229
 130   2.0000      -0.913266       -24.8512
 131   2.0000      -0.912618       -24.8336
 132   2.0000      -0.910063       -24.7641
 133   2.0000      -0.896459       -24.3939
 134   2.0000      -0.889300       -24.1991
 135   2.0000      -0.887160       -24.1408
 136   2.0000      -0.883283       -24.0354
 137   2.0000      -0.878283       -23.8993
 138   2.0000      -0.876645       -23.8547
 139   2.0000      -0.872289       -23.7362
 140   2.0000      -0.870156       -23.6781
 141   2.0000      -0.867551       -23.6073
 142   2.0000      -0.857719       -23.3397
 143   2.0000      -0.852897       -23.2085
 144   2.0000      -0.844857       -22.9897
 145   2.0000      -0.841337       -22.8940
 146   2.0000      -0.824955       -22.4482
 147   2.0000      -0.820907       -22.3380
 148   2.0000      -0.811996       -22.0955
 149   2.0000      -0.808512       -22.0007
 150   2.0000      -0.801801       -21.8181
 151   2.0000      -0.780829       -21.2474
 152   2.0000      -0.765536       -20.8313
 153   2.0000      -0.762879       -20.7590
 154   2.0000      -0.759474       -20.6663
 155   2.0000      -0.756116       -20.5749
 156   2.0000      -0.751151       -20.4399
 157   2.0000      -0.748767       -20.3750
 158   2.0000      -0.745992       -20.2995
 159   2.0000      -0.741422       -20.1751
 160   2.0000      -0.740804       -20.1583
 161   2.0000      -0.733969       -19.9723
 162   2.0000      -0.731284       -19.8992
 163   2.0000      -0.726672       -19.7737
 164   2.0000      -0.724370       -19.7111
 165   2.0000      -0.717183       -19.5155
 166   2.0000      -0.712552       -19.3895
 167   2.0000      -0.710897       -19.3445
 168   2.0000      -0.702082       -19.1046
 169   2.0000      -0.696232       -18.9454
 170   2.0000      -0.690021       -18.7764
 171   2.0000      -0.685268       -18.6471
 172   2.0000      -0.680953       -18.5297
 173   2.0000      -0.679251       -18.4834
 174   2.0000      -0.677055       -18.4236
 175   2.0000      -0.669845       -18.2274
 176   2.0000      -0.668741       -18.1974
 177   2.0000      -0.666391       -18.1334
 178   2.0000      -0.662900       -18.0384
 179   2.0000      -0.658275       -17.9126
 180   2.0000      -0.649726       -17.6799
 181   2.0000      -0.648878       -17.6569
 182   2.0000      -0.646441       -17.5905
 183   2.0000      -0.630480       -17.1562
 184   2.0000      -0.629148       -17.1200
 185   2.0000      -0.627462       -17.0741
 186   2.0000      -0.624424       -16.9914
 187   2.0000      -0.623383       -16.9631
 188   2.0000      -0.622553       -16.9405
 189   2.0000      -0.621030       -16.8991
 190   2.0000      -0.618538       -16.8313
 191   2.0000      -0.615850       -16.7581
 192   2.0000      -0.603438       -16.4204
 193   2.0000      -0.600264       -16.3340
 194   2.0000      -0.597175       -16.2499
 195   2.0000      -0.592282       -16.1168
 196   2.0000      -0.588248       -16.0070
 197   2.0000      -0.585526       -15.9330
 198   2.0000      -0.584690       -15.9102
 199   2.0000      -0.582326       -15.8459
 200   2.0000      -0.582012       -15.8374
 201   2.0000      -0.580757       -15.8032
 202   2.0000      -0.580016       -15.7830
 203   2.0000      -0.578855       -15.7515
 204   2.0000      -0.576743       -15.6940
 205   2.0000      -0.573533       -15.6066
 206   2.0000      -0.571629       -15.5548
 207   2.0000      -0.571126       -15.5411
 208   2.0000      -0.570581       -15.5263
 209   2.0000      -0.565580       -15.3902
 210   2.0000      -0.565075       -15.3765
 211   2.0000      -0.564309       -15.3556
 212   2.0000      -0.562918       -15.3178
 213   2.0000      -0.562097       -15.2954
 214   2.0000      -0.557761       -15.1774
 215   2.0000      -0.555442       -15.1143
 216   2.0000      -0.553466       -15.0606
 217   2.0000      -0.552442       -15.0327
 218   2.0000      -0.547719       -14.9042
 219   2.0000      -0.545543       -14.8450
 220   2.0000      -0.545364       -14.8401
 221   2.0000      -0.541991       -14.7483
 222   2.0000      -0.541176       -14.7261
 223   2.0000      -0.538448       -14.6519
 224   2.0000      -0.537635       -14.6298
 225   2.0000      -0.534426       -14.5425
 226   2.0000      -0.533464       -14.5163
 227   2.0000      -0.531443       -14.4613
 228   2.0000      -0.529720       -14.4144
 229   2.0000      -0.528391       -14.3783
 230   2.0000      -0.528123       -14.3709
 231   2.0000      -0.525283       -14.2937
 232   2.0000      -0.523894       -14.2559
 233   2.0000      -0.521010       -14.1774
 234   2.0000      -0.519610       -14.1393
 235   2.0000      -0.517613       -14.0850
 236   2.0000      -0.512478       -13.9452
 237   2.0000      -0.510460       -13.8903
 238   2.0000      -0.507048       -13.7975
 239   2.0000      -0.503082       -13.6896
 240   2.0000      -0.499911       -13.6033
 241   2.0000      -0.497784       -13.5454
 242   2.0000      -0.492459       -13.4005
 243   2.0000      -0.490682       -13.3521
 244   2.0000      -0.489477       -13.3194
 245   2.0000      -0.487561       -13.2672
 246   2.0000      -0.487196       -13.2573
 247   2.0000      -0.486678       -13.2432
 248   2.0000      -0.484448       -13.1825
 249   2.0000      -0.482650       -13.1336
 250   2.0000      -0.479773       -13.0553
 251   2.0000      -0.478432       -13.0188
 252   2.0000      -0.477363       -12.9897
 253   2.0000      -0.476078       -12.9547
 254   2.0000      -0.475118       -12.9286
 255   2.0000      -0.473739       -12.8911
 256   2.0000      -0.471872       -12.8403
 257   2.0000      -0.468357       -12.7446
 258   2.0000      -0.466515       -12.6945
 259   2.0000      -0.465062       -12.6550
 260   2.0000      -0.464386       -12.6366
 261   2.0000      -0.463980       -12.6255
 262   2.0000      -0.462743       -12.5919
 263   2.0000      -0.461293       -12.5524
 264   2.0000      -0.459708       -12.5093
 265   2.0000      -0.459088       -12.4924
 266   2.0000      -0.457796       -12.4573
 267   2.0000      -0.456651       -12.4261
 268   2.0000      -0.453835       -12.3495
 269   2.0000      -0.452697       -12.3185
 270   2.0000      -0.451856       -12.2956
 271   2.0000      -0.448733       -12.2106
 272   2.0000      -0.446143       -12.1402
 273   2.0000      -0.445150       -12.1132
 274   2.0000      -0.441189       -12.0054
 275   2.0000      -0.438438       -11.9305
 276   2.0000      -0.434244       -11.8164
 277   2.0000      -0.431818       -11.7504
 278   2.0000      -0.424705       -11.5568
 279   2.0000      -0.414682       -11.2841
 280   2.0000      -0.405638       -11.0380
 281   2.0000      -0.391569       -10.6551
 282   2.0000      -0.383480       -10.4350
 283   2.0000      -0.379690       -10.3319
 284   2.0000      -0.371812       -10.1175
 285   2.0000      -0.369585       -10.0569
 286   2.0000      -0.368358       -10.0235
 287   2.0000      -0.367492       -10.0000
 288   2.0000      -0.365521        -9.9463
 289   2.0000      -0.361883        -9.8473
 290   2.0000      -0.360223        -9.8022
 291   2.0000      -0.356316        -9.6958
 292   2.0000      -0.354460        -9.6453
 293   2.0000      -0.351352        -9.5608
 294   2.0000      -0.347907        -9.4670
 295   2.0000      -0.346231        -9.4214
 296   2.0000      -0.340778        -9.2730
 297   2.0000      -0.340121        -9.2552
 298   2.0000      -0.312004        -8.4901
 299   2.0000      -0.294567        -8.0156
 300   2.0000      -0.285513        -7.7692
 301   2.0000      -0.268220        -7.2986
 302   0.0000      -0.078595        -2.1387
 303   0.0000      -0.062653        -1.7049
 304   0.0000      -0.041297        -1.1237
 305   0.0000      -0.036169        -0.9842
 306   0.0000      -0.007776        -0.2116

MULLIKEN ATOMIC CHARGES
-----------------------
   0 C :    0.225526
   1 O :   -0.194382
   2 C :   -0.058209
   3 C :   -0.093137
   4 C :    0.240628
   5 C :    0.243038
   6 C :   -0.084340
   7 C :    0.023554
   8 C :    0.289053
   9 C :   -0.385838
  10 C :   -0.119397
  11 N :    0.093474
  12 C :   -0.131892
  13 N :    0.107977
  14 C :   -0.158116
  15 F :   -0.180549
  16 C :    0.013816
  17 F :   -0.185127
  18 C :    0.223418
  19 O :   -0.194023
  20 C :   -0.045772
  21 C :   -0.104651
  22 C :    0.242153
  23 C :    0.241470
  24 C :   -0.086864
  25 C :    0.021594
  26 C :    0.289847
  27 C :   -0.389633
  28 C :   -0.120788
  29 N :    0.092942
  30 C :   -0.132911
  31 N :    0.102424
  32 C :   -0.150099
  33 F :   -0.181910
  34 C :   -0.005550
  35 F :   -0.186761
  36 C :   -0.171901
  37 C :   -0.089197
  38 C :    0.033032
  39 C :   -0.044857
  40 C :   -0.099570
  41 S :    0.190401
  42 C :    0.028148
  43 C :   -0.017513
  44 C :    0.164820
  45 C :   -0.099098
  46 C :   -0.107383
  47 S :    0.198528
  48 S :    0.155771
  49 C :   -0.172301
  50 C :    0.154273
  51 N :   -0.239431
  52 C :    0.084375
  53 C :    0.092650
  54 C :    0.009966
  55 C :   -0.013757
  56 C :   -0.000069
  57 C :   -0.008332
  58 C :   -0.048965
  59 C :   -0.028447
  60 C :   -0.004905
  61 C :   -0.002039
  62 C :   -0.009201
  63 C :   -0.027173
  64 N :   -0.240396
  65 C :    0.081084
  66 C :    0.067371
  67 C :   -0.003738
  68 C :   -0.005734
  69 C :    0.006941
  70 C :   -0.007787
  71 C :   -0.016531
  72 C :   -0.020189
  73 C :   -0.007345
  74 C :   -0.005164
  75 C :    0.001384
  76 C :    0.007670
  77 C :    0.000379
  78 S :    0.199726
  79 C :   -0.106492
  80 C :   -0.026913
  81 C :   -0.103301
  82 C :    0.000267
  83 C :   -0.010117
  84 H :    0.039347
  85 H :    0.044973
  86 H :   -0.007817
  87 H :    0.033787
  88 H :    0.044188
  89 H :    0.002842
  90 H :    0.004074
  91 H :    0.055640
  92 H :    0.028229
  93 H :    0.031900
  94 H :    0.051356
  95 H :    0.029968
  96 H :    0.019772
  97 H :    0.019710
  98 H :    0.016077
  99 H :    0.017855
 100 H :    0.020894
 101 H :    0.021741
 102 H :    0.019438
 103 H :    0.018285
 104 H :    0.019737
 105 H :    0.025160
 106 H :    0.020563
 107 H :    0.017952
 108 H :    0.017665
 109 H :    0.020281
 110 H :    0.024864
 111 H :    0.016492
 112 H :    0.014945
 113 H :    0.011816
 114 H :    0.006688
 115 H :    0.021381
 116 H :    0.017583
 117 H :    0.063736
 118 H :    0.066456
 119 H :    0.038605
 120 H :    0.046329
 121 H :    0.037580
Sum of atomic charges:   -0.0000000

LOEWDIN ATOMIC CHARGES
----------------------
   0 C :    0.090364
   1 O :   -0.165485
   2 C :   -0.049088
   3 C :   -0.007663
   4 C :    0.073920
   5 C :    0.076340
   6 C :   -0.017752
   7 C :   -0.019477
   8 C :    0.082938
   9 C :   -0.155158
  10 C :   -0.012405
  11 N :   -0.061186
  12 C :   -0.015286
  13 N :   -0.056652
  14 C :   -0.135074
  15 F :   -0.048265
  16 C :    0.069287
  17 F :   -0.050679
  18 C :    0.091172
  19 O :   -0.161922
  20 C :   -0.048031
  21 C :   -0.011599
  22 C :    0.072812
  23 C :    0.075462
  24 C :   -0.017832
  25 C :   -0.018737
  26 C :    0.082428
  27 C :   -0.158632
  28 C :   -0.013787
  29 N :   -0.063922
  30 C :   -0.015228
  31 N :   -0.060366
  32 C :   -0.138709
  33 F :   -0.049325
  34 C :    0.067118
  35 F :   -0.052585
  36 C :   -0.216619
  37 C :   -0.162724
  38 C :   -0.057634
  39 C :    0.005485
  40 C :   -0.203982
  41 S :    0.492441
  42 C :   -0.032611
  43 C :   -0.045986
  44 C :   -0.011521
  45 C :   -0.201254
  46 C :   -0.202345
  47 S :    0.449454
  48 S :    0.440724
  49 C :   -0.209952
  50 C :   -0.007211
  51 N :   -0.008975
  52 C :    0.019470
  53 C :    0.004524
  54 C :   -0.035686
  55 C :   -0.013760
  56 C :   -0.036729
  57 C :   -0.019694
  58 C :   -0.045354
  59 C :   -0.047854
  60 C :   -0.017234
  61 C :   -0.034560
  62 C :   -0.018111
  63 C :   -0.036664
  64 N :   -0.005347
  65 C :   -0.001806
  66 C :    0.001490
  67 C :   -0.038311
  68 C :   -0.017511
  69 C :   -0.028200
  70 C :   -0.017433
  71 C :   -0.033133
  72 C :   -0.049644
  73 C :   -0.019241
  74 C :   -0.038837
  75 C :   -0.013521
  76 C :   -0.030725
  77 C :   -0.157998
  78 S :    0.544188
  79 C :   -0.209521
  80 C :   -0.001921
  81 C :   -0.086562
  82 C :   -0.038741
  83 C :   -0.054765
  84 H :    0.054768
  85 H :    0.053816
  86 H :    0.046613
  87 H :    0.051774
  88 H :    0.053735
  89 H :    0.047593
  90 H :    0.031895
  91 H :    0.037145
  92 H :    0.035419
  93 H :    0.024845
  94 H :    0.033696
  95 H :    0.026015
  96 H :    0.035491
  97 H :    0.034599
  98 H :    0.031626
  99 H :    0.033252
 100 H :    0.033859
 101 H :    0.034707
 102 H :    0.034242
 103 H :    0.031939
 104 H :    0.034095
 105 H :    0.037307
 106 H :    0.035816
 107 H :    0.033845
 108 H :    0.032291
 109 H :    0.034330
 110 H :    0.037652
 111 H :    0.032903
 112 H :    0.032435
 113 H :    0.029688
 114 H :    0.029068
 115 H :    0.035486
 116 H :    0.023231
 117 H :    0.044991
 118 H :    0.045623
 119 H :    0.026978
 120 H :    0.035038
 121 H :    0.027103

  Mayer bond orders larger than 0.100000
B(  0-C ,  1-O ) :   2.1372 B(  0-C ,  2-C ) :   0.9652 B(  0-C , 14-C ) :   0.9833
B(  2-C ,  3-C ) :   1.3483 B(  2-C ,  7-C ) :   1.3451 B(  3-C ,  4-C ) :   1.3251
B(  3-C , 84-H ) :   1.0153 B(  4-C ,  5-C ) :   1.2970 B(  4-C , 17-F ) :   1.0991
B(  5-C ,  6-C ) :   1.3476 B(  5-C , 15-F ) :   1.1140 B(  6-C ,  7-C ) :   1.3374
B(  6-C , 85-H ) :   0.9879 B(  7-C ,  8-C ) :   1.0135 B(  8-C ,  9-C ) :   1.6237
B(  8-C , 14-C ) :   1.1132 B(  9-C , 10-C ) :   1.1408 B(  9-C , 12-C ) :   1.1301
B( 10-C , 11-N ) :   2.9537 B( 12-C , 13-N ) :   2.9733 B( 14-C , 16-C ) :   1.5129
B( 16-C , 40-C ) :   1.3241 B( 16-C , 86-H ) :   0.9266 B( 18-C , 19-O ) :   2.1111
B( 18-C , 20-C ) :   0.9629 B( 18-C , 32-C ) :   0.9914 B( 20-C , 21-C ) :   1.3465
B( 20-C , 25-C ) :   1.3479 B( 21-C , 22-C ) :   1.3241 B( 21-C , 87-H ) :   1.0158
B( 22-C , 23-C ) :   1.2988 B( 22-C , 35-F ) :   1.0974 B( 23-C , 24-C ) :   1.3453
B( 23-C , 33-F ) :   1.1123 B( 24-C , 25-C ) :   1.3407 B( 24-C , 88-H ) :   0.9882
B( 25-C , 26-C ) :   1.0077 B( 26-C , 27-C ) :   1.6124 B( 26-C , 32-C ) :   1.1273
B( 27-C , 28-C ) :   1.1431 B( 27-C , 30-C ) :   1.1340 B( 28-C , 29-N ) :   2.9504
B( 30-C , 31-N ) :   2.9708 B( 32-C , 34-C ) :   1.4711 B( 34-C , 79-C ) :   1.3635
B( 34-C , 89-H ) :   0.9244 B( 36-C , 37-C ) :   1.1445 B( 36-C , 44-C ) :   1.5203
B( 36-C , 46-C ) :   0.1015 B( 36-C , 47-S ) :   1.0810 B( 37-C , 38-C ) :   1.4134
B( 37-C , 41-S ) :   1.1525 B( 38-C , 39-C ) :   1.3898 B( 38-C , 90-H ) :   0.9877
B( 39-C , 40-C ) :   1.3410 B( 39-C , 42-C ) :   1.0549 B( 40-C , 41-S ) :   1.0648
B( 42-C , 43-C ) :   1.0852 B( 42-C , 91-H ) :   0.9169 B( 42-C , 92-H ) :   0.9320
B( 43-C , 93-H ) :   0.9734 B( 43-C , 94-H ) :   0.9718 B( 43-C , 95-H ) :   0.9710
B( 44-C , 45-C ) :   1.2567 B( 44-C , 51-N ) :   1.0847 B( 45-C , 46-C ) :   1.5403
B( 45-C , 48-S ) :   1.0673 B( 46-C , 47-S ) :   1.0732 B( 46-C , 50-C ) :   1.2549
B( 48-S , 49-C ) :   1.0647 B( 49-C , 50-C ) :   1.4892 B( 49-C , 77-C ) :   1.2312
B( 50-C , 64-N ) :   1.0990 B( 51-N , 52-C ) :   0.9650 B( 51-N , 53-C ) :   0.9591
B( 52-C , 54-C ) :   1.4043 B( 52-C , 58-C ) :   1.3827 B( 53-C , 59-C ) :   1.3853
B( 53-C , 63-C ) :   1.3883 B( 54-C , 55-C ) :   1.3931 B( 54-C , 96-H ) :   0.9905
B( 55-C , 56-C ) :   1.3851 B( 55-C , 97-H ) :   0.9891 B( 56-C , 57-C ) :   1.3836
B( 56-C , 98-H ) :   0.9979 B( 57-C , 58-C ) :   1.3831 B( 57-C , 99-H ) :   0.9892
B( 58-C ,100-H ) :   0.9922 B( 59-C , 60-C ) :   1.3777 B( 59-C ,101-H ) :   0.9964
B( 60-C , 61-C ) :   1.3965 B( 60-C ,102-H ) :   0.9884 B( 61-C , 62-C ) :   1.3820
B( 61-C ,103-H ) :   0.9961 B( 62-C , 63-C ) :   1.3927 B( 62-C ,104-H ) :   0.9874
B( 63-C ,105-H ) :   0.9919 B( 64-N , 65-C ) :   0.9670 B( 64-N , 66-C ) :   0.9456
B( 65-C , 72-C ) :   1.3853 B( 65-C , 76-C ) :   1.3860 B( 66-C , 67-C ) :   1.3961
B( 66-C , 71-C ) :   1.3940 B( 67-C , 68-C ) :   1.3797 B( 67-C ,106-H ) :   0.9946
B( 68-C , 69-C ) :   1.3924 B( 68-C ,107-H ) :   0.9881 B( 69-C , 70-C ) :   1.3865
B( 69-C ,108-H ) :   0.9951 B( 70-C , 71-C ) :   1.3886 B( 70-C ,109-H ) :   0.9872
B( 71-C ,110-H ) :   0.9920 B( 72-C , 73-C ) :   1.3916 B( 72-C ,111-H ) :   0.9903
B( 73-C , 74-C ) :   1.3871 B( 73-C ,112-H ) :   0.9880 B( 74-C , 75-C ) :   1.3853
B( 74-C ,113-H ) :   0.9965 B( 75-C , 76-C ) :   1.3957 B( 75-C ,114-H ) :   0.9865
B( 76-C ,115-H ) :   0.9894 B( 77-C , 78-S ) :   1.1605 B( 77-C , 81-C ) :   1.3215
B( 78-S , 79-C ) :   1.0693 B( 79-C , 80-C ) :   1.3148 B( 80-C , 81-C ) :   1.4431
B( 80-C , 82-C ) :   1.0401 B( 81-C ,116-H ) :   0.9864 B( 82-C , 83-C ) :   1.1195
B( 82-C ,117-H ) :   0.9139 B( 82-C ,118-H ) :   0.9161 B( 83-C ,119-H ) :   0.9637
B( 83-C ,120-H ) :   0.9643 B( 83-C ,121-H ) :   0.9651

-----------------------------------------------------------------------------
         ABSORPTION SPECTRUM VIA TRANSITION ELECTRIC DIPOLE MOMENTS
-----------------------------------------------------------------------------
State   Energy  Wavelength   fosc         T2         TX        TY        TZ
        (cm-1)    (nm)                  (au**2)     (au)      (au)      (au)
-----------------------------------------------------------------------------
   0   18505.9    540.4   2.515272054  44.74551  -0.96030  -6.56952   0.81532
   1   22156.1    451.3   0.204776666   3.04273   0.90240  -1.29209   0.74759
   2   25817.4    387.3   0.445108663   5.67583  -2.06291  -1.10792  -0.43902
   3   27105.5    368.9   0.019377178   0.23535   0.08903   0.45926   0.12845
   4   27999.0    357.2   0.069634506   0.81876  -0.86929   0.13111  -0.21426
   5   29247.8    341.9   0.116703477   1.31361  -0.89950   0.66373  -0.25294
   6   29819.2    335.4   0.005911072   0.06526  -0.16074  -0.16516  -0.11020
   7   31784.6    314.6   0.005203740   0.05390  -0.03498   0.11040   0.20121
   8   33184.9    301.3   0.003236073   0.03210   0.04656   0.17233   0.01548
   9   33735.9    296.4   0.013771193   0.13439   0.34388   0.09634   0.08278
  10   34328.4    291.3   0.048023304   0.46055   0.02389  -0.58747   0.33890
  11   34535.9    289.6   0.022367125   0.21321   0.09765   0.41058  -0.18735
  12   34772.6    287.6   0.035735345   0.33833   0.01914   0.50884  -0.28115
  13   35500.1    281.7   0.172373358   1.59851   1.15800  -0.41579   0.29098
  14   36148.8    276.6   0.023703291   0.21587  -0.33066  -0.18762  -0.26708
  15   36631.3    273.0   0.670620953   6.02700   2.36365  -0.44935   0.48812
  16   36962.1    270.5   0.151119708   1.34599  -1.14040  -0.18626   0.10385
  17   37563.1    266.2   0.130741172   1.14585  -0.38154   0.89002  -0.45623
  18   37742.4    265.0   0.121108337   1.05638   1.01104   0.18245  -0.02985
  19   38152.1    262.1   0.052728502   0.45499   0.37799   0.48021  -0.28551
  20   38675.0    258.6   0.217975111   1.85546  -0.73856  -0.96835   0.61016
  21   39227.7    254.9   0.004071046   0.03417  -0.03212   0.09082  -0.15775
  22   39453.5    253.5   0.047551999   0.39679   0.35134   0.50361  -0.14042
  23   39754.0    251.5   0.328175310   2.71770  -1.57814   0.47644  -0.01345

Dispersion correction           -0.088226202
FINAL SINGLE POINT ENERGY     -5081.081595671418

DIPOLE MOMENT
-------------
                                X             Y             Z
Electronic contribution:    -76.78519      11.56702     -17.78692
Nuclear contribution   :     78.18546     -11.25915      18.28690
                        -----------------------------------------
Total Dipole Moment    :      1.40027       0.30787       0.49998
                        -----------------------------------------
Magnitude (a.u.)       :      1.51839
Magnitude (Debye)      :      3.85945

Rotational constants in cm-1:     0.001171     0.000309     0.000255
Rotational constants in MHz :    35.092619     9.269049     7.653059

                             ****ORCA TERMINATED NORMALLY****
TOTAL RUN TIME: 0 days 0 hours 15 minutes 41 seconds 144 msec
