                         Program Version 4.2.0 -  RELEASE  -
|  1> # ORCA input file
|  2> # SCF done       -166.769109935944          0.000675297763
|  3> ! wb97x-d3 def2-SVP def2/J RIJCOSX Grid4 TightSCF
|  4> %maxcore 5000
|  5> %tddft
|  6>     Mode sTDDFT
|  7>     Ethresh 5.0
|  8>     maxcore 5000
|  9> end
| 10>
| 11> %pal
| 12>   nprocs 6
| 13>   end
| 14> * xyz 0 1
| 15>    C        3.17674         1.28498        -0.07872
| 16>    C        2.99388        -0.11919        -0.04902
| 17>    C        1.75442        -0.64119         0.24087
| 18>    C        0.70546         0.25648         0.43087
| 19>    C        0.87992         1.66130         0.35893
| 20>    C        2.13193         2.18341         0.13380
| 21>    C       -0.66624         0.02098         0.74476
| 22>    C       -1.35386         1.22739         0.87285
| 23>    C       -0.43125         2.38585         0.59844
| 24>    C        4.55685         1.53025        -0.34405
| 25>    C        5.24492         0.32051        -0.47625
| 26>    C        4.30446        -0.84665        -0.30504
| 27>    S       -1.66652        -1.33583         1.00013
| 28>    C       -3.05689        -0.27500         1.26924
| 29>    C       -2.69508         1.06700         1.16486
| 30>    S        5.53158         2.91104        -0.58388
| 31>    C        6.91294         1.87261        -0.89923
| 32>    C        6.56970         0.51418        -0.79833
| 33>    C       -0.34909         3.35100         1.79141
| 34>    C       -0.95337         3.09299        -0.67479
| 35>    C       -0.07939         4.21525        -1.21766
| 36>    C        0.02046         2.64435         3.09068
| 37>    C        4.29362        -1.63685        -1.63157
| 38>    C        4.64595        -1.70238         0.93055
| 39>    C        3.35730        -2.83636        -1.68729
| 40>    C        5.98340        -2.42723         0.86283
| 41>    C        8.20607         2.27966        -1.24662
| 42>    C       -4.27280        -0.92281         1.53754
| 43>    C       -5.54898        -0.44643         1.70863
| 44>    C        8.73144         3.53444        -1.43950
| 45>    C        8.00837         4.80067        -1.28700
| 46>    C        8.97651         5.86348        -1.62388
| 47>    C       10.21154         5.28057        -1.95615
| 48>    C       10.09278         3.82667        -1.84456
| 49>    C       -6.04265         0.93996         1.57384
| 50>    C       -7.51430         0.85003         1.68423
| 51>    C       -7.89428        -0.48133         1.91543
| 52>    C       -6.69001        -1.30670         1.98008
| 53>    C        8.78448         7.22921        -1.64093
| 54>    C        9.85422         8.03926        -2.00170
| 55>    C       11.08740         7.46941        -2.33576
| 56>    C       11.27554         6.09117        -2.31515
| 57>    C       -8.44016         1.86765         1.58054
| 58>    C       -9.78591         1.54775         1.70594
| 59>    C      -10.17587         0.22293         1.93096
| 60>    C       -9.23755        -0.79781         2.03865
| 61>    O        6.84924         4.96383        -0.95251
| 62>    O       -5.41687         1.96567         1.40056
| 63>    C       -6.67718        -2.64167         2.29102
| 64>    C       11.10355         2.93376        -2.09094
| 65>    C       11.01183         1.52972        -1.98877
| 66>    C       12.40584         3.30342        -2.49063
| 67>    C       -5.53689        -3.46151         2.43403
| 68>    C       -7.83797        -3.40294         2.54952
| 69>    N       11.02598         0.38241        -1.92954
| 70>    N       13.48111         3.53046        -2.82154
| 71>    N       -8.73439        -4.08529         2.76868
| 72>    N       -4.67521        -4.20694         2.58092
| 73>   Cl       12.40128         8.48093        -2.78270
| 74>   Cl        9.65772         9.74455        -2.03785
| 75>   Cl      -10.97194         2.78306         1.58144
| 76>   Cl      -11.84328        -0.16188         2.07710
| 77>    H        1.57575        -1.70063         0.33471
| 78>    H        2.32807         3.24378         0.13046
| 79>    H       -3.40560         1.86051         1.30167
| 80>    H        7.29528        -0.25866        -0.98000
| 81>    H        0.39838         4.11548         1.57849
| 82>    H       -1.31708         3.84196         1.90683
| 83>    H       -1.07545         2.33560        -1.45369
| 84>    H       -1.94395         3.48932        -0.44209
| 85>    H        0.88194         3.83564        -1.55237
| 86>    H       -0.57594         4.67165        -2.07102
| 87>    H        0.08397         4.98868        -0.47248
| 88>    H        0.97950         2.13916         2.99542
| 89>    H        0.09204         3.36703         3.89975
| 90>    H       -0.73205         1.90621         3.35861
| 91>    H        4.02048        -0.93889        -2.42768
| 92>    H        5.31417        -1.96907        -1.82803
| 93>    H        4.64454        -1.03993         1.80038
| 94>    H        3.84684        -2.43031         1.07603
| 95>    H        2.31874        -2.52637        -1.61643
| 96>    H        3.48921        -3.34762        -2.63843
| 97>    H        3.57062        -3.54581        -0.89266
| 98>    H        6.02131        -3.11359         0.02162
| 99>    H        6.80455        -1.72124         0.77827
|100>    H        6.12749        -3.00314         1.77423
|101>    H        8.88135         1.44623        -1.39818
|102>    H       -4.16716        -1.99991         1.59290
|103>    H        7.82778         7.65414        -1.38147
|104>    H       12.24049         5.69122        -2.57936
|105>    H       -8.12327         2.88362         1.40553
|106>    H       -9.57885        -1.80519         2.20999
|107> *
|108>
|109>                          ****END OF INPUT****

CARTESIAN COORDINATES (ANGSTROEM)
---------------------------------
  C      3.176740    1.284980   -0.078720
  C      2.993880   -0.119190   -0.049020
  C      1.754420   -0.641190    0.240870
  C      0.705460    0.256480    0.430870
  C      0.879920    1.661300    0.358930
  C      2.131930    2.183410    0.133800
  C     -0.666240    0.020980    0.744760
  C     -1.353860    1.227390    0.872850
  C     -0.431250    2.385850    0.598440
  C      4.556850    1.530250   -0.344050
  C      5.244920    0.320510   -0.476250
  C      4.304460   -0.846650   -0.305040
  S     -1.666520   -1.335830    1.000130
  C     -3.056890   -0.275000    1.269240
  C     -2.695080    1.067000    1.164860
  S      5.531580    2.911040   -0.583880
  C      6.912940    1.872610   -0.899230
  C      6.569700    0.514180   -0.798330
  C     -0.349090    3.351000    1.791410
  C     -0.953370    3.092990   -0.674790
  C     -0.079390    4.215250   -1.217660
  C      0.020460    2.644350    3.090680
  C      4.293620   -1.636850   -1.631570
  C      4.645950   -1.702380    0.930550
  C      3.357300   -2.836360   -1.687290
  C      5.983400   -2.427230    0.862830
  C      8.206070    2.279660   -1.246620
  C     -4.272800   -0.922810    1.537540
  C     -5.548980   -0.446430    1.708630
  C      8.731440    3.534440   -1.439500
  C      8.008370    4.800670   -1.287000
  C      8.976510    5.863480   -1.623880
  C     10.211540    5.280570   -1.956150
  C     10.092780    3.826670   -1.844560
  C     -6.042650    0.939960    1.573840
  C     -7.514300    0.850030    1.684230
  C     -7.894280   -0.481330    1.915430
  C     -6.690010   -1.306700    1.980080
  C      8.784480    7.229210   -1.640930
  C      9.854220    8.039260   -2.001700
  C     11.087400    7.469410   -2.335760
  C     11.275540    6.091170   -2.315150
  C     -8.440160    1.867650    1.580540
  C     -9.785910    1.547750    1.705940
  C    -10.175870    0.222930    1.930960
  C     -9.237550   -0.797810    2.038650
  O      6.849240    4.963830   -0.952510
  O     -5.416870    1.965670    1.400560
  C     -6.677180   -2.641670    2.291020
  C     11.103550    2.933760   -2.090940
  C     11.011830    1.529720   -1.988770
  C     12.405840    3.303420   -2.490630
  C     -5.536890   -3.461510    2.434030
  C     -7.837970   -3.402940    2.549520
  N     11.025980    0.382410   -1.929540
  N     13.481110    3.530460   -2.821540
  N     -8.734390   -4.085290    2.768680
  N     -4.675210   -4.206940    2.580920
  Cl    12.401280    8.480930   -2.782700
  Cl     9.657720    9.744550   -2.037850
  Cl   -10.971940    2.783060    1.581440
  Cl   -11.843280   -0.161880    2.077100
  H      1.575750   -1.700630    0.334710
  H      2.328070    3.243780    0.130460
  H     -3.405600    1.860510    1.301670
  H      7.295280   -0.258660   -0.980000
  H      0.398380    4.115480    1.578490
  H     -1.317080    3.841960    1.906830
  H     -1.075450    2.335600   -1.453690
  H     -1.943950    3.489320   -0.442090
  H      0.881940    3.835640   -1.552370
  H     -0.575940    4.671650   -2.071020
  H      0.083970    4.988680   -0.472480
  H      0.979500    2.139160    2.995420
  H      0.092040    3.367030    3.899750
  H     -0.732050    1.906210    3.358610
  H      4.020480   -0.938890   -2.427680
  H      5.314170   -1.969070   -1.828030
  H      4.644540   -1.039930    1.800380
  H      3.846840   -2.430310    1.076030
  H      2.318740   -2.526370   -1.616430
  H      3.489210   -3.347620   -2.638430
  H      3.570620   -3.545810   -0.892660
  H      6.021310   -3.113590    0.021620
  H      6.804550   -1.721240    0.778270
  H      6.127490   -3.003140    1.774230
  H      8.881350    1.446230   -1.398180
  H     -4.167160   -1.999910    1.592900
  H      7.827780    7.654140   -1.381470
  H     12.240490    5.691220   -2.579360
  H     -8.123270    2.883620    1.405530
  H     -9.578850   -1.805190    2.209990

 Total Charge           Charge          ....    0
 Multiplicity           Mult            ....    1
 Number of Electrons    NEL             ....  474
 Basis Dimension        Dim             .... 1042

ORBITAL ENERGIES
----------------

  NO   OCC          E(Eh)            E(eV)
   0   2.0000    -101.627967     -2765.4376
   1   2.0000    -101.627420     -2765.4227
   2   2.0000    -101.625805     -2765.3787
   3   2.0000    -101.625367     -2765.3668
   4   2.0000     -89.003623     -2421.9117
   5   2.0000     -88.999001     -2421.7859
   6   2.0000     -19.263737      -524.1929
   7   2.0000     -19.262626      -524.1627
   8   2.0000     -14.457446      -393.4071
   9   2.0000     -14.455840      -393.3634
  10   2.0000     -14.452402      -393.2698
  11   2.0000     -14.451907      -393.2564
  12   2.0000     -10.412196      -283.3303
  13   2.0000     -10.410842      -283.2934
  14   2.0000     -10.394085      -282.8374
  15   2.0000     -10.393806      -282.8298
  16   2.0000     -10.393499      -282.8215
  17   2.0000     -10.393191      -282.8131
  18   2.0000     -10.384845      -282.5860
  19   2.0000     -10.384292      -282.5710
  20   2.0000     -10.381425      -282.4929
  21   2.0000     -10.381180      -282.4863
  22   2.0000     -10.365333      -282.0551
  23   2.0000     -10.364502      -282.0324
  24   2.0000     -10.358552      -281.8705
  25   2.0000     -10.356950      -281.8269
  26   2.0000     -10.356785      -281.8224
  27   2.0000     -10.356434      -281.8129
  28   2.0000     -10.355577      -281.7896
  29   2.0000     -10.353577      -281.7351
  30   2.0000     -10.353125      -281.7229
  31   2.0000     -10.352813      -281.7144
  32   2.0000     -10.352269      -281.6996
  33   2.0000     -10.347706      -281.5754
  34   2.0000     -10.346247      -281.5357
  35   2.0000     -10.345566      -281.5172
  36   2.0000     -10.345483      -281.5149
  37   2.0000     -10.345045      -281.5030
  38   2.0000     -10.338252      -281.3181
  39   2.0000     -10.337451      -281.2963
  40   2.0000     -10.337426      -281.2957
  41   2.0000     -10.337297      -281.2921
  42   2.0000     -10.336424      -281.2684
  43   2.0000     -10.336274      -281.2643
  44   2.0000     -10.334502      -281.2161
  45   2.0000     -10.334446      -281.2146
  46   2.0000     -10.334286      -281.2102
  47   2.0000     -10.329630      -281.0835
  48   2.0000     -10.329578      -281.0821
  49   2.0000     -10.328641      -281.0566
  50   2.0000     -10.328092      -281.0417
  51   2.0000     -10.327263      -281.0191
  52   2.0000     -10.321607      -280.8652
  53   2.0000     -10.320914      -280.8463
  54   2.0000     -10.312121      -280.6071
  55   2.0000     -10.311785      -280.5979
  56   2.0000     -10.310514      -280.5633
  57   2.0000     -10.309896      -280.5465
  58   2.0000     -10.297363      -280.2055
  59   2.0000     -10.297144      -280.1995
  60   2.0000     -10.294985      -280.1408
  61   2.0000     -10.290739      -280.0252
  62   2.0000      -9.604694      -261.3570
  63   2.0000      -9.604239      -261.3446
  64   2.0000      -9.602540      -261.2984
  65   2.0000      -9.602131      -261.2873
  66   2.0000      -8.117189      -220.8799
  67   2.0000      -8.110688      -220.7030
  68   2.0000      -7.364706      -200.4038
  69   2.0000      -7.364210      -200.3903
  70   2.0000      -7.362594      -200.3464
  71   2.0000      -7.362177      -200.3350
  72   2.0000      -7.354748      -200.1329
  73   2.0000      -7.354293      -200.1205
  74   2.0000      -7.354075      -200.1146
  75   2.0000      -7.353636      -200.1026
  76   2.0000      -7.352557      -200.0732
  77   2.0000      -7.352151      -200.0622
  78   2.0000      -7.351902      -200.0554
  79   2.0000      -7.351485      -200.0441
  80   2.0000      -6.076472      -165.3492
  81   2.0000      -6.072533      -165.2420
  82   2.0000      -6.070236      -165.1795
  83   2.0000      -6.069724      -165.1656
  84   2.0000      -6.065719      -165.0566
  85   2.0000      -6.063208      -164.9883
  86   2.0000      -1.181732       -32.1566
  87   2.0000      -1.179816       -32.1044
  88   2.0000      -1.072185       -29.1756
  89   2.0000      -1.071808       -29.1654
  90   2.0000      -1.063592       -28.9418
  91   2.0000      -1.057935       -28.7879
  92   2.0000      -1.057131       -28.7660
  93   2.0000      -1.053772       -28.6746
  94   2.0000      -1.036370       -28.2011
  95   2.0000      -1.035214       -28.1696
  96   2.0000      -1.032722       -28.1018
  97   2.0000      -1.032050       -28.0835
  98   2.0000      -1.015693       -27.6384
  99   2.0000      -1.000279       -27.2190
 100   2.0000      -0.999861       -27.2076
 101   2.0000      -0.994957       -27.0742
 102   2.0000      -0.974768       -26.5248
 103   2.0000      -0.973355       -26.4863
 104   2.0000      -0.957964       -26.0675
 105   2.0000      -0.949088       -25.8260
 106   2.0000      -0.945541       -25.7295
 107   2.0000      -0.934186       -25.4205
 108   2.0000      -0.920557       -25.0496
 109   2.0000      -0.906224       -24.6596
 110   2.0000      -0.901514       -24.5314
 111   2.0000      -0.900766       -24.5111
 112   2.0000      -0.891066       -24.2471
 113   2.0000      -0.887098       -24.1392
 114   2.0000      -0.885902       -24.1066
 115   2.0000      -0.883441       -24.0397
 116   2.0000      -0.882375       -24.0106
 117   2.0000      -0.876057       -23.8387
 118   2.0000      -0.844850       -22.9895
 119   2.0000      -0.832563       -22.6552
 120   2.0000      -0.816265       -22.2117
 121   2.0000      -0.809969       -22.0404
 122   2.0000      -0.808201       -21.9923
 123   2.0000      -0.806039       -21.9334
 124   2.0000      -0.792500       -21.5650
 125   2.0000      -0.775116       -21.0920
 126   2.0000      -0.756815       -20.5940
 127   2.0000      -0.753491       -20.5035
 128   2.0000      -0.747607       -20.3434
 129   2.0000      -0.739029       -20.1100
 130   2.0000      -0.737178       -20.0596
 131   2.0000      -0.735843       -20.0233
 132   2.0000      -0.732622       -19.9356
 133   2.0000      -0.725057       -19.7298
 134   2.0000      -0.715692       -19.4750
 135   2.0000      -0.705508       -19.1979
 136   2.0000      -0.696276       -18.9466
 137   2.0000      -0.691015       -18.8035
 138   2.0000      -0.684794       -18.6342
 139   2.0000      -0.676286       -18.4027
 140   2.0000      -0.668992       -18.2042
 141   2.0000      -0.659671       -17.9506
 142   2.0000      -0.658188       -17.9102
 143   2.0000      -0.653953       -17.7950
 144   2.0000      -0.648972       -17.6594
 145   2.0000      -0.639813       -17.4102
 146   2.0000      -0.625647       -17.0247
 147   2.0000      -0.624389       -16.9905
 148   2.0000      -0.614484       -16.7209
 149   2.0000      -0.611732       -16.6461
 150   2.0000      -0.606964       -16.5163
 151   2.0000      -0.597823       -16.2676
 152   2.0000      -0.593396       -16.1471
 153   2.0000      -0.593014       -16.1367
 154   2.0000      -0.590435       -16.0665
 155   2.0000      -0.587605       -15.9895
 156   2.0000      -0.586534       -15.9604
 157   2.0000      -0.585677       -15.9371
 158   2.0000      -0.583241       -15.8708
 159   2.0000      -0.583154       -15.8684
 160   2.0000      -0.576998       -15.7009
 161   2.0000      -0.576388       -15.6843
 162   2.0000      -0.572271       -15.5723
 163   2.0000      -0.570948       -15.5363
 164   2.0000      -0.567092       -15.4314
 165   2.0000      -0.565614       -15.3911
 166   2.0000      -0.557973       -15.1832
 167   2.0000      -0.554210       -15.0808
 168   2.0000      -0.548266       -14.9191
 169   2.0000      -0.547911       -14.9094
 170   2.0000      -0.546932       -14.8828
 171   2.0000      -0.541494       -14.7348
 172   2.0000      -0.538838       -14.6625
 173   2.0000      -0.537962       -14.6387
 174   2.0000      -0.535663       -14.5761
 175   2.0000      -0.534277       -14.5384
 176   2.0000      -0.530138       -14.4258
 177   2.0000      -0.527585       -14.3563
 178   2.0000      -0.525972       -14.3124
 179   2.0000      -0.521252       -14.1840
 180   2.0000      -0.519063       -14.1244
 181   2.0000      -0.517535       -14.0828
 182   2.0000      -0.515274       -14.0213
 183   2.0000      -0.506255       -13.7759
 184   2.0000      -0.504358       -13.7243
 185   2.0000      -0.503897       -13.7117
 186   2.0000      -0.501729       -13.6528
 187   2.0000      -0.498779       -13.5725
 188   2.0000      -0.490172       -13.3382
 189   2.0000      -0.489097       -13.3090
 190   2.0000      -0.487125       -13.2553
 191   2.0000      -0.486053       -13.2262
 192   2.0000      -0.483713       -13.1625
 193   2.0000      -0.481779       -13.1099
 194   2.0000      -0.481122       -13.0920
 195   2.0000      -0.479523       -13.0485
 196   2.0000      -0.477360       -12.9896
 197   2.0000      -0.476750       -12.9730
 198   2.0000      -0.475887       -12.9495
 199   2.0000      -0.474811       -12.9203
 200   2.0000      -0.470752       -12.8098
 201   2.0000      -0.467641       -12.7251
 202   2.0000      -0.466561       -12.6958
 203   2.0000      -0.465706       -12.6725
 204   2.0000      -0.465443       -12.6654
 205   2.0000      -0.465118       -12.6565
 206   2.0000      -0.462061       -12.5733
 207   2.0000      -0.460043       -12.5184
 208   2.0000      -0.455851       -12.4043
 209   2.0000      -0.455431       -12.3929
 210   2.0000      -0.447428       -12.1751
 211   2.0000      -0.447017       -12.1640
 212   2.0000      -0.445627       -12.1261
 213   2.0000      -0.444367       -12.0918
 214   2.0000      -0.443159       -12.0590
 215   2.0000      -0.442009       -12.0277
 216   2.0000      -0.439473       -11.9587
 217   2.0000      -0.437622       -11.9083
 218   2.0000      -0.432777       -11.7765
 219   2.0000      -0.430249       -11.7077
 220   2.0000      -0.423382       -11.5208
 221   2.0000      -0.420864       -11.4523
 222   2.0000      -0.417250       -11.3540
 223   2.0000      -0.417071       -11.3491
 224   2.0000      -0.401699       -10.9308
 225   2.0000      -0.382775       -10.4159
 226   2.0000      -0.379668       -10.3313
 227   2.0000      -0.376049       -10.2328
 228   2.0000      -0.374342       -10.1864
 229   2.0000      -0.372501       -10.1363
 230   2.0000      -0.368587       -10.0297
 231   2.0000      -0.366420        -9.9708
 232   2.0000      -0.360011        -9.7964
 233   2.0000      -0.346250        -9.4219
 234   2.0000      -0.344386        -9.3712
 235   2.0000      -0.321627        -8.7519
 236   2.0000      -0.285986        -7.7821
 237   0.0000      -0.084779        -2.3069
 238   0.0000      -0.066597        -1.8122
 239   0.0000      -0.048381        -1.3165
 240   0.0000      -0.042534        -1.1574
 241   0.0000      -0.003646        -0.0992

MULLIKEN ATOMIC CHARGES
-----------------------
   0 C :    0.015827
   1 C :    0.036741
   2 C :   -0.095765
   3 C :    0.026452
   4 C :    0.017227
   5 C :   -0.092604
   6 C :   -0.027231
   7 C :   -0.006590
   8 C :   -0.208829
   9 C :   -0.025187
  10 C :    0.062107
  11 C :   -0.197260
  12 S :    0.170512
  13 C :   -0.153781
  14 C :    0.010737
  15 S :    0.210863
  16 C :   -0.085742
  17 C :   -0.067191
  18 C :    0.013492
  19 C :    0.031663
  20 C :   -0.015719
  21 C :   -0.022739
  22 C :    0.013212
  23 C :    0.013168
  24 C :   -0.013354
  25 C :   -0.016895
  26 C :    0.002117
  27 C :    0.066905
  28 C :   -0.136424
  29 C :   -0.144291
  30 C :    0.234236
  31 C :   -0.065372
  32 C :    0.012292
  33 C :    0.295959
  34 C :    0.228553
  35 C :   -0.063248
  36 C :    0.012637
  37 C :    0.282402
  38 C :   -0.010153
  39 C :    0.041093
  40 C :    0.030995
  41 C :    0.002104
  42 C :   -0.009432
  43 C :    0.040224
  44 C :    0.030138
  45 C :    0.006473
  46 O :   -0.197476
  47 O :   -0.185129
  48 C :   -0.376061
  49 C :   -0.376184
  50 C :   -0.127549
  51 C :   -0.130316
  52 C :   -0.129173
  53 C :   -0.130286
  54 N :    0.095025
  55 N :    0.113205
  56 N :    0.107469
  57 N :    0.106953
  58 Cl:   -0.037692
  59 Cl:   -0.045763
  60 Cl:   -0.044463
  61 Cl:   -0.037465
  62 H :   -0.001173
  63 H :    0.000192
  64 H :    0.036877
  65 H :    0.033857
  66 H :    0.035211
  67 H :    0.033333
  68 H :    0.031857
  69 H :    0.033445
  70 H :    0.036752
  71 H :    0.041870
  72 H :    0.027606
  73 H :    0.037065
  74 H :    0.039540
  75 H :    0.041838
  76 H :    0.033550
  77 H :    0.030350
  78 H :    0.035090
  79 H :    0.030514
  80 H :    0.034811
  81 H :    0.043355
  82 H :    0.027877
  83 H :    0.031520
  84 H :    0.032163
  85 H :    0.044439
  86 H :    0.028683
  87 H :    0.028040
  88 H :    0.028856
  89 H :    0.029033
  90 H :    0.028386
  91 H :    0.029647
Sum of atomic charges:   -0.0000000

LOEWDIN ATOMIC CHARGES
----------------------
   0 C :   -0.032449
   1 C :    0.013918
   2 C :   -0.018523
   3 C :   -0.032304
   4 C :    0.011890
   5 C :   -0.016777
   6 C :   -0.150838
   7 C :   -0.044335
   8 C :   -0.039892
   9 C :   -0.155271
  10 C :   -0.047653
  11 C :   -0.038353
  12 S :    0.455795
  13 C :   -0.182403
  14 C :    0.001929
  15 S :    0.506447
  16 C :   -0.191093
  17 C :   -0.008321
  18 C :   -0.017355
  19 C :   -0.012567
  20 C :   -0.061556
  21 C :   -0.058610
  22 C :   -0.016891
  23 C :   -0.017654
  24 C :   -0.060994
  25 C :   -0.059224
  26 C :    0.067375
  27 C :    0.057607
  28 C :   -0.117775
  29 C :   -0.129580
  30 C :    0.091537
  31 C :   -0.047606
  32 C :   -0.016914
  33 C :    0.080342
  34 C :    0.097117
  35 C :   -0.047917
  36 C :   -0.017774
  37 C :    0.079403
  38 C :    0.001000
  39 C :   -0.134814
  40 C :   -0.130617
  41 C :   -0.009664
  42 C :    0.000861
  43 C :   -0.134645
  44 C :   -0.130538
  45 C :   -0.009957
  46 O :   -0.166743
  47 O :   -0.147394
  48 C :   -0.145904
  49 C :   -0.147121
  50 C :   -0.014521
  51 C :   -0.015332
  52 C :   -0.018989
  53 C :   -0.014658
  54 N :   -0.056081
  55 N :   -0.051241
  56 N :   -0.051333
  57 N :   -0.051323
  58 Cl:    0.157574
  59 Cl:    0.153959
  60 Cl:    0.154010
  61 Cl:    0.157518
  62 H :    0.031749
  63 H :    0.033323
  64 H :    0.036733
  65 H :    0.039817
  66 H :    0.023568
  67 H :    0.028034
  68 H :    0.029712
  69 H :    0.027714
  70 H :    0.025121
  71 H :    0.033361
  72 H :    0.023687
  73 H :    0.026393
  74 H :    0.029890
  75 H :    0.026999
  76 H :    0.031587
  77 H :    0.024045
  78 H :    0.031623
  79 H :    0.022271
  80 H :    0.025045
  81 H :    0.034282
  82 H :    0.023753
  83 H :    0.024436
  84 H :    0.025532
  85 H :    0.034334
  86 H :    0.052543
  87 H :    0.044573
  88 H :    0.049472
  89 H :    0.047245
  90 H :    0.049128
  91 H :    0.047252

  Mayer bond orders larger than 0.100000
B(  0-C ,  1-C ) :   1.3819 B(  0-C ,  5-C ) :   1.3129 B(  0-C ,  9-C ) :   1.0917
B(  1-C ,  2-C ) :   1.4284 B(  1-C , 11-C ) :   0.9254 B(  2-C ,  3-C ) :   1.3227
B(  2-C , 62-H ) :   0.9968 B(  3-C ,  4-C ) :   1.3736 B(  3-C ,  6-C ) :   1.0801
B(  4-C ,  5-C ) :   1.4309 B(  4-C ,  8-C ) :   0.9079 B(  5-C , 63-H ) :   1.0023
B(  6-C ,  7-C ) :   1.4698 B(  6-C , 12-S ) :   1.1499 B(  7-C ,  8-C ) :   0.9392
B(  7-C , 14-C ) :   1.3465 B(  8-C , 18-C ) :   1.0276 B(  8-C , 19-C ) :   1.0091
B(  9-C , 10-C ) :   1.4496 B(  9-C , 15-S ) :   1.1205 B( 10-C , 11-C ) :   0.9377
B( 10-C , 17-C ) :   1.3726 B( 11-C , 22-C ) :   0.9974 B( 11-C , 23-C ) :   1.0002
B( 12-S , 13-C ) :   1.0874 B( 13-C , 14-C ) :   1.3864 B( 13-C , 27-C ) :   1.2543
B( 14-C , 64-H ) :   0.9833 B( 15-S , 16-C ) :   1.0761 B( 16-C , 17-C ) :   1.3323
B( 16-C , 26-C ) :   1.2999 B( 17-C , 65-H ) :   1.0094 B( 18-C , 21-C ) :   1.0881
B( 18-C , 66-H ) :   0.9457 B( 18-C , 67-H ) :   0.9487 B( 19-C , 20-C ) :   1.1035
B( 19-C , 68-H ) :   0.9471 B( 19-C , 69-H ) :   0.9449 B( 20-C , 70-H ) :   0.9638
B( 20-C , 71-H ) :   0.9658 B( 20-C , 72-H ) :   0.9671 B( 21-C , 73-H ) :   0.9690
B( 21-C , 74-H ) :   0.9706 B( 21-C , 75-H ) :   0.9668 B( 22-C , 24-C ) :   1.0996
B( 22-C , 76-H ) :   0.9456 B( 22-C , 77-H ) :   0.9473 B( 23-C , 25-C ) :   1.0978
B( 23-C , 78-H ) :   0.9463 B( 23-C , 79-H ) :   0.9454 B( 24-C , 80-H ) :   0.9643
B( 24-C , 81-H ) :   0.9667 B( 24-C , 82-H ) :   0.9659 B( 25-C , 83-H ) :   0.9655
B( 25-C , 84-H ) :   0.9676 B( 25-C , 85-H ) :   0.9674 B( 26-C , 29-C ) :   1.5076
B( 26-C , 86-H ) :   0.9395 B( 27-C , 28-C ) :   1.5939 B( 27-C , 87-H ) :   0.9114
B( 28-C , 34-C ) :   0.9535 B( 28-C , 37-C ) :   1.0983 B( 29-C , 30-C ) :   0.9846
B( 29-C , 33-C ) :   1.0998 B( 30-C , 31-C ) :   0.9597 B( 30-C , 46-O ) :   2.1316
B( 31-C , 32-C ) :   1.3324 B( 31-C , 38-C ) :   1.3728 B( 32-C , 33-C ) :   1.0019
B( 32-C , 41-C ) :   1.3711 B( 33-C , 49-C ) :   1.6363 B( 34-C , 35-C ) :   0.9589
B( 34-C , 47-O ) :   2.1464 B( 35-C , 36-C ) :   1.3346 B( 35-C , 42-C ) :   1.3683
B( 36-C , 37-C ) :   1.0024 B( 36-C , 45-C ) :   1.3672 B( 37-C , 48-C ) :   1.6349
B( 38-C , 39-C ) :   1.3529 B( 38-C , 88-H ) :   1.0120 B( 39-C , 40-C ) :   1.4090
B( 39-C , 59-Cl) :   1.0514 B( 40-C , 41-C ) :   1.3704 B( 40-C , 58-Cl) :   1.0808
B( 41-C , 89-H ) :   0.9827 B( 42-C , 43-C ) :   1.3563 B( 42-C , 90-H ) :   1.0127
B( 43-C , 44-C ) :   1.4058 B( 43-C , 60-Cl) :   1.0528 B( 44-C , 45-C ) :   1.3734
B( 44-C , 61-Cl) :   1.0810 B( 45-C , 91-H ) :   0.9831 B( 48-C , 52-C ) :   1.1293
B( 48-C , 53-C ) :   1.1318 B( 49-C , 50-C ) :   1.1342 B( 49-C , 51-C ) :   1.1303
B( 50-C , 54-N ) :   2.9524 B( 51-C , 55-N ) :   2.9688 B( 52-C , 57-N ) :   2.9635
B( 53-C , 56-N ) :   2.9668

-----------------------------------------------------------------------------
         ABSORPTION SPECTRUM VIA TRANSITION ELECTRIC DIPOLE MOMENTS
-----------------------------------------------------------------------------
State   Energy  Wavelength   fosc         T2         TX        TY        TZ
        (cm-1)    (nm)                  (au**2)     (au)      (au)      (au)
-----------------------------------------------------------------------------
   0   19934.6    501.6   3.023621738  49.93399  -6.58037  -2.05532   1.55189
   1   27063.8    369.5   0.004909839   0.05972  -0.02945   0.24037   0.03284
   2   29532.8    338.6   0.017689149   0.19719  -0.42686  -0.11137   0.05078
   3   30116.9    332.0   0.003409183   0.03727   0.15459  -0.11286   0.02512
   4   34123.6    293.1   0.187642625   1.81031   0.66374  -1.16367   0.12504
   5   34516.9    289.7   0.030168602   0.28774   0.36585   0.28702   0.26742
   6   36126.8    276.8   0.312012904   2.84327  -0.71466   1.52119  -0.13602
   7   37208.0    268.8   0.915888175   8.10368   1.52090  -2.40621  -0.02632
   8   37759.1    264.8   0.015480996   0.13497   0.05676  -0.36221   0.02360
   9   38167.7    262.0   0.221580963   1.91123  -0.80931  -1.01777   0.46945
  10   38472.4    259.9   0.481751286   4.12240   0.59315  -1.94147   0.03537
  11   39194.8    255.1   0.177792995   1.49335   0.08839  -1.21726  -0.06171
  12   39578.8    252.7   0.057231412   0.47604   0.66744  -0.17150   0.03405

Dispersion correction           -0.058738769
FINAL SINGLE POINT ENERGY     -4926.816120583008

DIPOLE MOMENT
-------------
                                X             Y             Z
Electronic contribution:    -23.33919      45.65265      -4.65450
Nuclear contribution   :     22.75209     -44.05581       4.42963
                        -----------------------------------------
Total Dipole Moment    :     -0.58710       1.59684      -0.22487
                        -----------------------------------------
Magnitude (a.u.)       :      1.71614
Magnitude (Debye)      :      4.36208

Rotational constants in cm-1:     0.002462     0.000282     0.000256
Rotational constants in MHz :    73.808082     8.443674     7.667938

                             ****ORCA TERMINATED NORMALLY****
TOTAL RUN TIME: 0 days 0 hours 8 minutes 14 seconds 211 msec
