                         Program Version 4.2.0 -  RELEASE  -
|  1> # ORCA input file
|  2> # SCF done       -205.329623021201          0.000818651226
|  3> ! wb97x-d3 def2-SVP def2/J RIJCOSX Grid4 TightSCF
|  4> %maxcore 5000
|  5> %tddft
|  6>     Mode sTDDFT
|  7>     Ethresh 5.0
|  8>     maxcore 5000
|  9> end
| 10>
| 11> %pal
| 12>   nprocs 6
| 13>   end
| 14> * xyz 0 1
| 15>    C        2.14986        -2.40064        -0.16694
| 16>    C        2.17806        -1.71356         1.07022
| 17>    C        1.19532        -0.79225         1.42415
| 18>    C        0.17885        -0.57973         0.52292
| 19>    C        0.12903        -1.29783        -0.69594
| 20>    C        1.11721        -2.21096        -1.05474
| 21>    C        3.34601        -3.32870        -0.30266
| 22>    C        4.01947        -3.12457         1.03033
| 23>    C        3.33412        -2.17244         1.77193
| 24>    C        5.14927        -3.61274         1.67398
| 25>    C        5.32802        -3.04230         2.92347
| 26>    S        4.07052        -1.86754         3.28734
| 27>    C       -1.01222         0.35605         0.65236
| 28>    C       -1.76795         0.03492        -0.61194
| 29>    C       -1.06464        -0.89213        -1.36648
| 30>    C       -2.94660         0.45520        -1.21735
| 31>    C       -3.15641        -0.16117        -2.43850
| 32>    S       -1.85160        -1.26951        -2.84028
| 33>    C        6.35788        -3.31300         3.87198
| 34>    C       -4.26027         0.00548        -3.32855
| 35>    C       -1.75955         0.02035         1.92762
| 36>    C       -0.64044         1.82763         0.58708
| 37>    C        2.84607        -4.74071        -0.53626
| 38>    C        4.33022        -2.89905        -1.37707
| 39>    C        6.41745        -2.67072         5.10676
| 40>    C        7.40072        -2.91979         6.05356
| 41>    C        8.42320        -3.84232         5.84703
| 42>    C        8.40471        -4.51965         4.59607
| 43>    C        7.38593        -4.26385         3.61438
| 44>    C       -4.34718        -0.67983        -4.53710
| 45>    C       -5.40520        -0.52561        -5.42244
| 46>    C       -6.45651         0.35457        -5.19020
| 47>    C       -6.43789         1.03336        -3.94556
| 48>    C       -5.34974         0.86717        -3.01923
| 49>    N        9.27782        -5.43522         4.18367
| 50>    S        8.86325        -5.92711         2.71133
| 51>    N        7.55856        -5.00709         2.52272
| 52>    N       -7.39405         1.81693        -3.45537
| 53>    S       -6.95780         2.33402        -2.00268
| 54>    N       -5.54708         1.56922        -1.90405
| 55>    C        2.57336        -5.17591        -1.82722
| 56>    C        2.07726        -6.44622        -2.04932
| 57>    C        1.83449        -7.31259        -0.99133
| 58>    C        2.10029        -6.86950         0.29719
| 59>    C        2.59407        -5.59824         0.52513
| 60>    C        5.35924        -3.76387        -1.73143
| 61>    C        6.29692        -3.39006        -2.67363
| 62>    C        6.23902        -2.14163        -3.28097
| 63>    C        5.21650        -1.27804        -2.91473
| 64>    C        4.27524        -1.64659        -1.96995
| 65>    C       -1.37563         0.60060         3.13033
| 66>    C       -2.01531         0.26316         4.30749
| 67>    C       -3.04972        -0.66390         4.31750
| 68>    C       -3.42648        -1.24338         3.11377
| 69>    C       -2.78693        -0.91209         1.93329
| 70>    C       -1.60736         2.77991         0.88812
| 71>    C       -1.32195         4.12684         0.78348
| 72>    C       -0.06865         4.56029         0.36818
| 73>    C        0.89069         3.60515         0.06368
| 74>    C        0.60971         2.25405         0.16462
| 75>    C       -3.77360        -0.99207         5.59126
| 76>    C        0.25188         6.02527         0.29672
| 77>    C        7.22702        -1.75762        -4.34415
| 78>    C        1.34691        -8.71101        -1.23793
| 79>    C        2.53025        -9.66685        -1.40292
| 80>    C        6.71785        -2.18411        -5.72265
| 81>    C       -4.93067        -0.01632         5.81537
| 82>    C        0.76441         6.52719         1.64821
| 83>    C        9.46702        -4.16279         6.76547
| 84>    C        9.69080        -3.66214         8.01263
| 85>    C       -7.49590         0.52879        -6.15927
| 86>    C       -8.27660         1.62836        -6.32855
| 87>    C       10.79734        -4.12606         8.76157
| 88>    C        8.92329        -2.69413         8.69213
| 89>    C       -9.29112         1.62272        -7.31472
| 90>    C       -8.11856         2.87967        -5.69032
| 91>    N       11.69622        -4.50096         9.36649
| 92>    N        8.33998        -1.91166         9.29670
| 93>    N       -8.00215         3.95644        -5.31146
| 94>    N      -10.11652         1.60034        -8.11002
| 95>    H        1.23903        -0.27311         2.36906
| 96>    H        1.06465        -2.74262        -1.99225
| 97>    H        5.82432        -4.35153         1.28506
| 98>    H       -3.64329         1.16487        -0.81271
| 99>    H        5.65544        -1.94114         5.33945
|100>    H        7.36297        -2.37383         6.98255
|101>    H       -3.54996        -1.36058        -4.79804
|102>    H       -5.39307        -1.08468        -6.34693
|103>    H        2.76327        -4.52075        -2.66532
|104>    H        1.87399        -6.76936        -3.06049
|105>    H        1.91543        -7.52627         1.13541
|106>    H        2.78709        -5.27459         1.53761
|107>    H        5.41734        -4.73978        -1.27186
|108>    H        7.08819        -4.07621        -2.94012
|109>    H        5.15535        -0.30018        -3.37103
|110>    H        3.49334        -0.95249        -1.69853
|111>    H       -0.57879         1.33037         3.14328
|112>    H       -1.70465         0.72493         5.23394
|113>    H       -4.22830        -1.96793         3.09863
|114>    H       -3.09353        -1.38240         1.01026
|115>    H       -2.58684         2.46072         1.21327
|116>    H       -2.08510         4.85379         1.02199
|117>    H        1.87161         3.91988        -0.26344
|118>    H        1.37229         1.53138        -0.08695
|119>    H       -4.16549        -2.00998         5.54288
|120>    H       -3.08356        -0.93103         6.43524
|121>    H        1.01417         6.20105        -0.46491
|122>    H       -0.64305         6.58650         0.02073
|123>    H        7.37957        -0.67656        -4.33574
|124>    H        8.18693        -2.24024        -4.15011
|125>    H        0.73159        -9.04197        -0.39888
|126>    H        0.73513        -8.73654        -2.14188
|127>    H        3.15304        -9.65463        -0.51118
|128>    H        2.17934       -10.68286        -1.56778
|129>    H        3.14226        -9.36848        -2.25127
|130>    H        5.76492        -1.70578        -5.93812
|131>    H        7.42990        -1.90393        -6.49528
|132>    H        6.57461        -3.26192        -5.75607
|133>    H       -5.63612        -0.07015         4.98914
|134>    H       -5.45613        -0.25440         6.73717
|135>    H       -4.55824         1.00351         5.88097
|136>    H        1.66404         5.98747         1.93565
|137>    H        0.99721         7.58814         1.59670
|138>    H        0.01239         6.37335         2.41887
|139>    H       10.16578        -4.90891         6.40575
|140>    H       -7.64790        -0.29504        -6.84776
|141> *
|142>
|143>                          ****END OF INPUT****

CARTESIAN COORDINATES (ANGSTROEM)
---------------------------------
  C      2.149860   -2.400640   -0.166940
  C      2.178060   -1.713560    1.070220
  C      1.195320   -0.792250    1.424150
  C      0.178850   -0.579730    0.522920
  C      0.129030   -1.297830   -0.695940
  C      1.117210   -2.210960   -1.054740
  C      3.346010   -3.328700   -0.302660
  C      4.019470   -3.124570    1.030330
  C      3.334120   -2.172440    1.771930
  C      5.149270   -3.612740    1.673980
  C      5.328020   -3.042300    2.923470
  S      4.070520   -1.867540    3.287340
  C     -1.012220    0.356050    0.652360
  C     -1.767950    0.034920   -0.611940
  C     -1.064640   -0.892130   -1.366480
  C     -2.946600    0.455200   -1.217350
  C     -3.156410   -0.161170   -2.438500
  S     -1.851600   -1.269510   -2.840280
  C      6.357880   -3.313000    3.871980
  C     -4.260270    0.005480   -3.328550
  C     -1.759550    0.020350    1.927620
  C     -0.640440    1.827630    0.587080
  C      2.846070   -4.740710   -0.536260
  C      4.330220   -2.899050   -1.377070
  C      6.417450   -2.670720    5.106760
  C      7.400720   -2.919790    6.053560
  C      8.423200   -3.842320    5.847030
  C      8.404710   -4.519650    4.596070
  C      7.385930   -4.263850    3.614380
  C     -4.347180   -0.679830   -4.537100
  C     -5.405200   -0.525610   -5.422440
  C     -6.456510    0.354570   -5.190200
  C     -6.437890    1.033360   -3.945560
  C     -5.349740    0.867170   -3.019230
  N      9.277820   -5.435220    4.183670
  S      8.863250   -5.927110    2.711330
  N      7.558560   -5.007090    2.522720
  N     -7.394050    1.816930   -3.455370
  S     -6.957800    2.334020   -2.002680
  N     -5.547080    1.569220   -1.904050
  C      2.573360   -5.175910   -1.827220
  C      2.077260   -6.446220   -2.049320
  C      1.834490   -7.312590   -0.991330
  C      2.100290   -6.869500    0.297190
  C      2.594070   -5.598240    0.525130
  C      5.359240   -3.763870   -1.731430
  C      6.296920   -3.390060   -2.673630
  C      6.239020   -2.141630   -3.280970
  C      5.216500   -1.278040   -2.914730
  C      4.275240   -1.646590   -1.969950
  C     -1.375630    0.600600    3.130330
  C     -2.015310    0.263160    4.307490
  C     -3.049720   -0.663900    4.317500
  C     -3.426480   -1.243380    3.113770
  C     -2.786930   -0.912090    1.933290
  C     -1.607360    2.779910    0.888120
  C     -1.321950    4.126840    0.783480
  C     -0.068650    4.560290    0.368180
  C      0.890690    3.605150    0.063680
  C      0.609710    2.254050    0.164620
  C     -3.773600   -0.992070    5.591260
  C      0.251880    6.025270    0.296720
  C      7.227020   -1.757620   -4.344150
  C      1.346910   -8.711010   -1.237930
  C      2.530250   -9.666850   -1.402920
  C      6.717850   -2.184110   -5.722650
  C     -4.930670   -0.016320    5.815370
  C      0.764410    6.527190    1.648210
  C      9.467020   -4.162790    6.765470
  C      9.690800   -3.662140    8.012630
  C     -7.495900    0.528790   -6.159270
  C     -8.276600    1.628360   -6.328550
  C     10.797340   -4.126060    8.761570
  C      8.923290   -2.694130    8.692130
  C     -9.291120    1.622720   -7.314720
  C     -8.118560    2.879670   -5.690320
  N     11.696220   -4.500960    9.366490
  N      8.339980   -1.911660    9.296700
  N     -8.002150    3.956440   -5.311460
  N    -10.116520    1.600340   -8.110020
  H      1.239030   -0.273110    2.369060
  H      1.064650   -2.742620   -1.992250
  H      5.824320   -4.351530    1.285060
  H     -3.643290    1.164870   -0.812710
  H      5.655440   -1.941140    5.339450
  H      7.362970   -2.373830    6.982550
  H     -3.549960   -1.360580   -4.798040
  H     -5.393070   -1.084680   -6.346930
  H      2.763270   -4.520750   -2.665320
  H      1.873990   -6.769360   -3.060490
  H      1.915430   -7.526270    1.135410
  H      2.787090   -5.274590    1.537610
  H      5.417340   -4.739780   -1.271860
  H      7.088190   -4.076210   -2.940120
  H      5.155350   -0.300180   -3.371030
  H      3.493340   -0.952490   -1.698530
  H     -0.578790    1.330370    3.143280
  H     -1.704650    0.724930    5.233940
  H     -4.228300   -1.967930    3.098630
  H     -3.093530   -1.382400    1.010260
  H     -2.586840    2.460720    1.213270
  H     -2.085100    4.853790    1.021990
  H      1.871610    3.919880   -0.263440
  H      1.372290    1.531380   -0.086950
  H     -4.165490   -2.009980    5.542880
  H     -3.083560   -0.931030    6.435240
  H      1.014170    6.201050   -0.464910
  H     -0.643050    6.586500    0.020730
  H      7.379570   -0.676560   -4.335740
  H      8.186930   -2.240240   -4.150110
  H      0.731590   -9.041970   -0.398880
  H      0.735130   -8.736540   -2.141880
  H      3.153040   -9.654630   -0.511180
  H      2.179340  -10.682860   -1.567780
  H      3.142260   -9.368480   -2.251270
  H      5.764920   -1.705780   -5.938120
  H      7.429900   -1.903930   -6.495280
  H      6.574610   -3.261920   -5.756070
  H     -5.636120   -0.070150    4.989140
  H     -5.456130   -0.254400    6.737170
  H     -4.558240    1.003510    5.880970
  H      1.664040    5.987470    1.935650
  H      0.997210    7.588140    1.596700
  H      0.012390    6.373350    2.418870
  H     10.165780   -4.908910    6.405750
  H     -7.647900   -0.295040   -6.847760

 Total Charge           Charge          ....    0
 Multiplicity           Mult            ....    1
 Number of Electrons    NEL             ....  574
 Basis Dimension        Dim             .... 1366

ORBITAL ENERGIES
----------------

  NO   OCC          E(Eh)            E(eV)
   0   2.0000     -89.061578     -2423.4887
   1   2.0000     -89.057060     -2423.3658
   2   2.0000     -88.994472     -2421.6627
   3   2.0000     -88.993259     -2421.6297
   4   2.0000     -14.492494      -394.3608
   5   2.0000     -14.489273      -394.2731
   6   2.0000     -14.487055      -394.2128
   7   2.0000     -14.482944      -394.1009
   8   2.0000     -14.453036      -393.2871
   9   2.0000     -14.441958      -392.9857
  10   2.0000     -14.441115      -392.9627
  11   2.0000     -14.436442      -392.8355
  12   2.0000     -10.377056      -282.3740
  13   2.0000     -10.376727      -282.3651
  14   2.0000     -10.373077      -282.2658
  15   2.0000     -10.372708      -282.2557
  16   2.0000     -10.369527      -282.1692
  17   2.0000     -10.368599      -282.1439
  18   2.0000     -10.365760      -282.0667
  19   2.0000     -10.364876      -282.0426
  20   2.0000     -10.359366      -281.8927
  21   2.0000     -10.357037      -281.8293
  22   2.0000     -10.352320      -281.7009
  23   2.0000     -10.348918      -281.6084
  24   2.0000     -10.347671      -281.5744
  25   2.0000     -10.344973      -281.5010
  26   2.0000     -10.343324      -281.4562
  27   2.0000     -10.342627      -281.4372
  28   2.0000     -10.342574      -281.4357
  29   2.0000     -10.342107      -281.4230
  30   2.0000     -10.341265      -281.4001
  31   2.0000     -10.341105      -281.3958
  32   2.0000     -10.340802      -281.3875
  33   2.0000     -10.339688      -281.3572
  34   2.0000     -10.336957      -281.2829
  35   2.0000     -10.335710      -281.2490
  36   2.0000     -10.332653      -281.1658
  37   2.0000     -10.332611      -281.1646
  38   2.0000     -10.326909      -281.0095
  39   2.0000     -10.326852      -281.0079
  40   2.0000     -10.322127      -280.8794
  41   2.0000     -10.321612      -280.8653
  42   2.0000     -10.318504      -280.7808
  43   2.0000     -10.317552      -280.7549
  44   2.0000     -10.317435      -280.7517
  45   2.0000     -10.316394      -280.7233
  46   2.0000     -10.315553      -280.7005
  47   2.0000     -10.314467      -280.6709
  48   2.0000     -10.312390      -280.6144
  49   2.0000     -10.311561      -280.5918
  50   2.0000     -10.310543      -280.5641
  51   2.0000     -10.309856      -280.5455
  52   2.0000     -10.303721      -280.3785
  53   2.0000     -10.303630      -280.3760
  54   2.0000     -10.301878      -280.3284
  55   2.0000     -10.301319      -280.3131
  56   2.0000     -10.299998      -280.2772
  57   2.0000     -10.299942      -280.2757
  58   2.0000     -10.299370      -280.2601
  59   2.0000     -10.299258      -280.2571
  60   2.0000     -10.298497      -280.2364
  61   2.0000     -10.298387      -280.2334
  62   2.0000     -10.298369      -280.2329
  63   2.0000     -10.298328      -280.2318
  64   2.0000     -10.298160      -280.2272
  65   2.0000     -10.297794      -280.2172
  66   2.0000     -10.297581      -280.2114
  67   2.0000     -10.297439      -280.2076
  68   2.0000     -10.297432      -280.2074
  69   2.0000     -10.297410      -280.2068
  70   2.0000     -10.296525      -280.1827
  71   2.0000     -10.296424      -280.1799
  72   2.0000     -10.295876      -280.1650
  73   2.0000     -10.295831      -280.1638
  74   2.0000     -10.295587      -280.1572
  75   2.0000     -10.295457      -280.1536
  76   2.0000     -10.288693      -279.9696
  77   2.0000     -10.288447      -279.9629
  78   2.0000     -10.286548      -279.9112
  79   2.0000     -10.285836      -279.8918
  80   2.0000      -8.172072      -222.3734
  81   2.0000      -8.167457      -222.2478
  82   2.0000      -8.107703      -220.6218
  83   2.0000      -8.106552      -220.5905
  84   2.0000      -6.133582      -166.9032
  85   2.0000      -6.128936      -166.7768
  86   2.0000      -6.125577      -166.6854
  87   2.0000      -6.124610      -166.6591
  88   2.0000      -6.120874      -166.5575
  89   2.0000      -6.120101      -166.5364
  90   2.0000      -6.067172      -165.0961
  91   2.0000      -6.066026      -165.0650
  92   2.0000      -6.063174      -164.9873
  93   2.0000      -6.062045      -164.9566
  94   2.0000      -6.060055      -164.9025
  95   2.0000      -6.058880      -164.8705
  96   2.0000      -1.177541       -32.0425
  97   2.0000      -1.173344       -31.9283
  98   2.0000      -1.058079       -28.7918
  99   2.0000      -1.050081       -28.5741
 100   2.0000      -1.048898       -28.5420
 101   2.0000      -1.043599       -28.3978
 102   2.0000      -1.034118       -28.1398
 103   2.0000      -1.029160       -28.0049
 104   2.0000      -1.026477       -27.9319
 105   2.0000      -1.024088       -27.8669
 106   2.0000      -1.021299       -27.7910
 107   2.0000      -1.017790       -27.6955
 108   2.0000      -1.002927       -27.2910
 109   2.0000      -1.001023       -27.2392
 110   2.0000      -0.992311       -27.0022
 111   2.0000      -0.986098       -26.8331
 112   2.0000      -0.984139       -26.7798
 113   2.0000      -0.974362       -26.5137
 114   2.0000      -0.967895       -26.3377
 115   2.0000      -0.962445       -26.1895
 116   2.0000      -0.943945       -25.6860
 117   2.0000      -0.932305       -25.3693
 118   2.0000      -0.921730       -25.0816
 119   2.0000      -0.913626       -24.8610
 120   2.0000      -0.911825       -24.8120
 121   2.0000      -0.910963       -24.7886
 122   2.0000      -0.908894       -24.7323
 123   2.0000      -0.908388       -24.7185
 124   2.0000      -0.899383       -24.4735
 125   2.0000      -0.895474       -24.3671
 126   2.0000      -0.877704       -23.8836
 127   2.0000      -0.874501       -23.7964
 128   2.0000      -0.869782       -23.6680
 129   2.0000      -0.868115       -23.6226
 130   2.0000      -0.866864       -23.5886
 131   2.0000      -0.863981       -23.5101
 132   2.0000      -0.860041       -23.4029
 133   2.0000      -0.855560       -23.2810
 134   2.0000      -0.845078       -22.9957
 135   2.0000      -0.840816       -22.8798
 136   2.0000      -0.838869       -22.8268
 137   2.0000      -0.828971       -22.5575
 138   2.0000      -0.805058       -21.9067
 139   2.0000      -0.797809       -21.7095
 140   2.0000      -0.788257       -21.4496
 141   2.0000      -0.783261       -21.3136
 142   2.0000      -0.781813       -21.2742
 143   2.0000      -0.766077       -20.8460
 144   2.0000      -0.760483       -20.6938
 145   2.0000      -0.759520       -20.6676
 146   2.0000      -0.748807       -20.3761
 147   2.0000      -0.747955       -20.3529
 148   2.0000      -0.746612       -20.3164
 149   2.0000      -0.739135       -20.1129
 150   2.0000      -0.731040       -19.8926
 151   2.0000      -0.727862       -19.8061
 152   2.0000      -0.726652       -19.7732
 153   2.0000      -0.724576       -19.7167
 154   2.0000      -0.722934       -19.6720
 155   2.0000      -0.721542       -19.6341
 156   2.0000      -0.709413       -19.3041
 157   2.0000      -0.706820       -19.2335
 158   2.0000      -0.695432       -18.9237
 159   2.0000      -0.692222       -18.8363
 160   2.0000      -0.690231       -18.7821
 161   2.0000      -0.688895       -18.7458
 162   2.0000      -0.683296       -18.5934
 163   2.0000      -0.677963       -18.4483
 164   2.0000      -0.674598       -18.3568
 165   2.0000      -0.673490       -18.3266
 166   2.0000      -0.660989       -17.9864
 167   2.0000      -0.650624       -17.7044
 168   2.0000      -0.644758       -17.5448
 169   2.0000      -0.638953       -17.3868
 170   2.0000      -0.634884       -17.2761
 171   2.0000      -0.633245       -17.2315
 172   2.0000      -0.631189       -17.1755
 173   2.0000      -0.628368       -17.0988
 174   2.0000      -0.626015       -17.0347
 175   2.0000      -0.617032       -16.7903
 176   2.0000      -0.612170       -16.6580
 177   2.0000      -0.604698       -16.4547
 178   2.0000      -0.600567       -16.3423
 179   2.0000      -0.598443       -16.2845
 180   2.0000      -0.593865       -16.1599
 181   2.0000      -0.591922       -16.1070
 182   2.0000      -0.589641       -16.0450
 183   2.0000      -0.587479       -15.9861
 184   2.0000      -0.586585       -15.9618
 185   2.0000      -0.584648       -15.9091
 186   2.0000      -0.578276       -15.7357
 187   2.0000      -0.572880       -15.5888
 188   2.0000      -0.567250       -15.4357
 189   2.0000      -0.566535       -15.4162
 190   2.0000      -0.564887       -15.3714
 191   2.0000      -0.562452       -15.3051
 192   2.0000      -0.557159       -15.1611
 193   2.0000      -0.556250       -15.1363
 194   2.0000      -0.550064       -14.9680
 195   2.0000      -0.549395       -14.9498
 196   2.0000      -0.545402       -14.8412
 197   2.0000      -0.544341       -14.8123
 198   2.0000      -0.539908       -14.6916
 199   2.0000      -0.539814       -14.6891
 200   2.0000      -0.535929       -14.5834
 201   2.0000      -0.535150       -14.5622
 202   2.0000      -0.534581       -14.5467
 203   2.0000      -0.533834       -14.5264
 204   2.0000      -0.532303       -14.4847
 205   2.0000      -0.530681       -14.4406
 206   2.0000      -0.529210       -14.4005
 207   2.0000      -0.527810       -14.3624
 208   2.0000      -0.526829       -14.3357
 209   2.0000      -0.526090       -14.3156
 210   2.0000      -0.525167       -14.2905
 211   2.0000      -0.524124       -14.2621
 212   2.0000      -0.522993       -14.2314
 213   2.0000      -0.520514       -14.1639
 214   2.0000      -0.513987       -13.9863
 215   2.0000      -0.512881       -13.9562
 216   2.0000      -0.512380       -13.9426
 217   2.0000      -0.511842       -13.9279
 218   2.0000      -0.508209       -13.8291
 219   2.0000      -0.506349       -13.7785
 220   2.0000      -0.504964       -13.7408
 221   2.0000      -0.503746       -13.7076
 222   2.0000      -0.499905       -13.6031
 223   2.0000      -0.495973       -13.4961
 224   2.0000      -0.494726       -13.4622
 225   2.0000      -0.492135       -13.3917
 226   2.0000      -0.487764       -13.2727
 227   2.0000      -0.484953       -13.1962
 228   2.0000      -0.483531       -13.1576
 229   2.0000      -0.482481       -13.1290
 230   2.0000      -0.480163       -13.0659
 231   2.0000      -0.477520       -12.9940
 232   2.0000      -0.475849       -12.9485
 233   2.0000      -0.474131       -12.9018
 234   2.0000      -0.470895       -12.8137
 235   2.0000      -0.469606       -12.7786
 236   2.0000      -0.468831       -12.7575
 237   2.0000      -0.467475       -12.7206
 238   2.0000      -0.466630       -12.6976
 239   2.0000      -0.464163       -12.6305
 240   2.0000      -0.461768       -12.5653
 241   2.0000      -0.460283       -12.5249
 242   2.0000      -0.458551       -12.4778
 243   2.0000      -0.458078       -12.4649
 244   2.0000      -0.457015       -12.4360
 245   2.0000      -0.455817       -12.4034
 246   2.0000      -0.455705       -12.4004
 247   2.0000      -0.454651       -12.3717
 248   2.0000      -0.453700       -12.3458
 249   2.0000      -0.451199       -12.2778
 250   2.0000      -0.449726       -12.2377
 251   2.0000      -0.447981       -12.1902
 252   2.0000      -0.444340       -12.0911
 253   2.0000      -0.442802       -12.0492
 254   2.0000      -0.441741       -12.0204
 255   2.0000      -0.440208       -11.9787
 256   2.0000      -0.437720       -11.9110
 257   2.0000      -0.435850       -11.8601
 258   2.0000      -0.435203       -11.8425
 259   2.0000      -0.433687       -11.8012
 260   2.0000      -0.433296       -11.7906
 261   2.0000      -0.430928       -11.7262
 262   2.0000      -0.430756       -11.7215
 263   2.0000      -0.428729       -11.6663
 264   2.0000      -0.427014       -11.6196
 265   2.0000      -0.416911       -11.3447
 266   2.0000      -0.414840       -11.2884
 267   2.0000      -0.405673       -11.0389
 268   2.0000      -0.399380       -10.8677
 269   2.0000      -0.390519       -10.6266
 270   2.0000      -0.382013       -10.3951
 271   2.0000      -0.379067       -10.3149
 272   2.0000      -0.372036       -10.1236
 273   2.0000      -0.368747       -10.0341
 274   2.0000      -0.365380        -9.9425
 275   2.0000      -0.358586        -9.7576
 276   2.0000      -0.356484        -9.7004
 277   2.0000      -0.354409        -9.6440
 278   2.0000      -0.349370        -9.5069
 279   2.0000      -0.347542        -9.4571
 280   2.0000      -0.343072        -9.3355
 281   2.0000      -0.335841        -9.1387
 282   2.0000      -0.329815        -8.9747
 283   2.0000      -0.325871        -8.8674
 284   2.0000      -0.323099        -8.7920
 285   2.0000      -0.303897        -8.2695
 286   2.0000      -0.270866        -7.3706
 287   0.0000      -0.080658        -2.1948
 288   0.0000      -0.069545        -1.8924
 289   0.0000      -0.011451        -0.3116
 290   0.0000      -0.009470        -0.2577
 291   0.0000      -0.006184        -0.1683

MULLIKEN ATOMIC CHARGES
-----------------------
   0 C :    0.011421
   1 C :    0.026252
   2 C :   -0.063392
   3 C :    0.010319
   4 C :    0.028319
   5 C :   -0.071019
   6 C :    0.003475
   7 C :    0.028826
   8 C :   -0.027490
   9 C :   -0.018122
  10 C :   -0.126298
  11 S :    0.133615
  12 C :   -0.000427
  13 C :    0.030737
  14 C :   -0.028114
  15 C :   -0.017991
  16 C :   -0.122246
  17 S :    0.126055
  18 C :    0.121346
  19 C :    0.115481
  20 C :    0.026990
  21 C :    0.028493
  22 C :    0.025233
  23 C :    0.027028
  24 C :   -0.075026
  25 C :   -0.004393
  26 C :   -0.028318
  27 C :    0.048839
  28 C :    0.034509
  29 C :   -0.078253
  30 C :   -0.001841
  31 C :   -0.002557
  32 C :    0.062828
  33 C :    0.036599
  34 N :   -0.309774
  35 S :    0.538329
  36 N :   -0.318529
  37 N :   -0.314699
  38 S :    0.555669
  39 N :   -0.325019
  40 C :   -0.024199
  41 C :   -0.025520
  42 C :   -0.059453
  43 C :   -0.016492
  44 C :   -0.019809
  45 C :   -0.023037
  46 C :   -0.024787
  47 C :   -0.061517
  48 C :   -0.013973
  49 C :   -0.013999
  50 C :   -0.028424
  51 C :   -0.022269
  52 C :   -0.059928
  53 C :   -0.020462
  54 C :   -0.016927
  55 C :   -0.024220
  56 C :   -0.023098
  57 C :   -0.061680
  58 C :   -0.014192
  59 C :   -0.015577
  60 C :    0.014646
  61 C :    0.012026
  62 C :    0.013490
  63 C :    0.013919
  64 C :   -0.022198
  65 C :   -0.022510
  66 C :   -0.023231
  67 C :   -0.024100
  68 C :    0.157583
  69 C :   -0.337685
  70 C :    0.119891
  71 C :   -0.298621
  72 C :   -0.078978
  73 C :   -0.086201
  74 C :   -0.087150
  75 C :   -0.088426
  76 N :    0.079742
  77 N :    0.096398
  78 N :    0.106762
  79 N :    0.074378
  80 H :   -0.013773
  81 H :   -0.014821
  82 H :    0.020529
  83 H :    0.022008
  84 H :    0.027715
  85 H :    0.034967
  86 H :    0.025333
  87 H :    0.020184
  88 H :    0.015219
  89 H :   -0.005597
  90 H :   -0.003712
  91 H :    0.011560
  92 H :    0.011512
  93 H :   -0.005451
  94 H :   -0.006235
  95 H :    0.010240
  96 H :    0.016466
  97 H :   -0.004701
  98 H :   -0.003580
  99 H :    0.010327
 100 H :    0.012755
 101 H :   -0.003039
 102 H :   -0.006640
 103 H :    0.008992
 104 H :    0.026822
 105 H :    0.029654
 106 H :    0.028699
 107 H :    0.030007
 108 H :    0.029712
 109 H :    0.027560
 110 H :    0.029058
 111 H :    0.027630
 112 H :    0.027410
 113 H :    0.037563
 114 H :    0.026989
 115 H :    0.026790
 116 H :    0.038452
 117 H :    0.027407
 118 H :    0.028156
 119 H :    0.037347
 120 H :    0.027820
 121 H :    0.027271
 122 H :    0.038737
 123 H :    0.028404
 124 H :    0.044333
 125 H :    0.036890
Sum of atomic charges:   -0.0000000

LOEWDIN ATOMIC CHARGES
----------------------
   0 C :    0.014133
   1 C :   -0.032676
   2 C :   -0.012341
   3 C :    0.014190
   4 C :   -0.030623
   5 C :   -0.014387
   6 C :   -0.020713
   7 C :   -0.039686
   8 C :   -0.161103
   9 C :   -0.016754
  10 C :   -0.173826
  11 S :    0.434844
  12 C :   -0.020553
  13 C :   -0.037896
  14 C :   -0.164116
  15 C :   -0.017406
  16 C :   -0.171891
  17 S :    0.429207
  18 C :   -0.006536
  19 C :   -0.008897
  20 C :   -0.017389
  21 C :   -0.015054
  22 C :   -0.016946
  23 C :   -0.014753
  24 C :   -0.034916
  25 C :    0.033470
  26 C :   -0.076139
  27 C :   -0.032718
  28 C :   -0.042881
  29 C :   -0.039656
  30 C :    0.021278
  31 C :   -0.067241
  32 C :   -0.037336
  33 C :   -0.040094
  34 N :   -0.289195
  35 S :    0.649196
  36 N :   -0.274503
  37 N :   -0.260386
  38 S :    0.664979
  39 N :   -0.278240
  40 C :   -0.024345
  41 C :   -0.028189
  42 C :   -0.023472
  43 C :   -0.026343
  44 C :   -0.020951
  45 C :   -0.019228
  46 C :   -0.026701
  47 C :   -0.023548
  48 C :   -0.027172
  49 C :   -0.025408
  50 C :   -0.024333
  51 C :   -0.027052
  52 C :   -0.023340
  53 C :   -0.026759
  54 C :   -0.021100
  55 C :   -0.019211
  56 C :   -0.025561
  57 C :   -0.023136
  58 C :   -0.027383
  59 C :   -0.026246
  60 C :   -0.032786
  61 C :   -0.032961
  62 C :   -0.032860
  63 C :   -0.032828
  64 C :   -0.052817
  65 C :   -0.053013
  66 C :   -0.052819
  67 C :   -0.053188
  68 C :    0.090997
  69 C :   -0.134266
  70 C :    0.075974
  71 C :   -0.117583
  72 C :   -0.017386
  73 C :   -0.015789
  74 C :   -0.016373
  75 C :   -0.019384
  76 N :   -0.050133
  77 N :   -0.047930
  78 N :   -0.053185
  79 N :   -0.049359
  80 H :    0.033288
  81 H :    0.032738
  82 H :    0.034435
  83 H :    0.035111
  84 H :    0.031525
  85 H :    0.045687
  86 H :    0.029452
  87 H :    0.040912
  88 H :    0.030146
  89 H :    0.027191
  90 H :    0.027878
  91 H :    0.031862
  92 H :    0.030279
  93 H :    0.027420
  94 H :    0.027401
  95 H :    0.030173
  96 H :    0.030274
  97 H :    0.027603
  98 H :    0.027730
  99 H :    0.031514
 100 H :    0.030591
 101 H :    0.028230
 102 H :    0.027128
 103 H :    0.029702
 104 H :    0.028461
 105 H :    0.029132
 106 H :    0.028840
 107 H :    0.029455
 108 H :    0.029143
 109 H :    0.028584
 110 H :    0.029123
 111 H :    0.028430
 112 H :    0.024846
 113 H :    0.025354
 114 H :    0.024758
 115 H :    0.024728
 116 H :    0.025591
 117 H :    0.024697
 118 H :    0.025108
 119 H :    0.025382
 120 H :    0.024818
 121 H :    0.024816
 122 H :    0.025686
 123 H :    0.024906
 124 H :    0.058333
 125 H :    0.054261

  Mayer bond orders larger than 0.100000
B(  0-C ,  1-C ) :   1.3686 B(  0-C ,  5-C ) :   1.4350 B(  0-C ,  6-C ) :   0.9285
B(  1-C ,  2-C ) :   1.3169 B(  1-C ,  8-C ) :   1.0721 B(  2-C ,  3-C ) :   1.4383
B(  2-C , 80-H ) :   0.9996 B(  3-C ,  4-C ) :   1.3672 B(  3-C , 12-C ) :   0.9275
B(  4-C ,  5-C ) :   1.3171 B(  4-C , 14-C ) :   1.0723 B(  5-C , 81-H ) :   1.0002
B(  6-C ,  7-C ) :   0.9476 B(  6-C , 22-C ) :   0.9385 B(  6-C , 23-C ) :   0.9310
B(  7-C ,  8-C ) :   1.5215 B(  7-C ,  9-C ) :   1.2986 B(  8-C , 11-S ) :   1.1152
B(  9-C , 10-C ) :   1.4708 B(  9-C , 82-H ) :   0.9930 B( 10-C , 11-S ) :   1.0903
B( 10-C , 18-C ) :   1.1542 B( 12-C , 13-C ) :   0.9473 B( 12-C , 20-C ) :   0.9390
B( 12-C , 21-C ) :   0.9324 B( 13-C , 14-C ) :   1.5271 B( 13-C , 15-C ) :   1.2937
B( 14-C , 17-S ) :   1.1107 B( 15-C , 16-C ) :   1.4808 B( 15-C , 83-H ) :   0.9922
B( 16-C , 17-S ) :   1.0897 B( 16-C , 19-C ) :   1.1451 B( 18-C , 24-C ) :   1.4315
B( 18-C , 28-C ) :   1.1856 B( 19-C , 29-C ) :   1.4486 B( 19-C , 33-C ) :   1.1898
B( 20-C , 50-C ) :   1.3970 B( 20-C , 54-C ) :   1.4223 B( 21-C , 55-C ) :   1.3909
B( 21-C , 59-C ) :   1.4323 B( 22-C , 40-C ) :   1.3978 B( 22-C , 44-C ) :   1.4228
B( 23-C , 45-C ) :   1.3901 B( 23-C , 49-C ) :   1.4344 B( 24-C , 25-C ) :   1.3072
B( 24-C , 84-H ) :   0.9878 B( 25-C , 26-C ) :   1.4177 B( 25-C , 85-H ) :   0.9762
B( 26-C , 27-C ) :   1.1700 B( 26-C , 68-C ) :   1.1321 B( 27-C , 28-C ) :   1.1605
B( 27-C , 34-N ) :   1.5533 B( 28-C , 36-N ) :   1.5156 B( 29-C , 30-C ) :   1.2798
B( 29-C , 86-H ) :   0.9867 B( 30-C , 31-C ) :   1.4298 B( 30-C , 87-H ) :   0.9946
B( 31-C , 32-C ) :   1.1821 B( 31-C , 70-C ) :   1.0870 B( 32-C , 33-C ) :   1.1630
B( 32-C , 37-N ) :   1.5022 B( 33-C , 39-N ) :   1.5139 B( 34-N , 35-S ) :   1.2653
B( 34-N , 36-N ) :   0.1464 B( 35-S , 36-N ) :   1.2757 B( 37-N , 38-S ) :   1.2802
B( 37-N , 39-N ) :   0.1444 B( 38-S , 39-N ) :   1.2760 B( 40-C , 41-C ) :   1.3932
B( 40-C , 88-H ) :   0.9882 B( 41-C , 42-C ) :   1.3900 B( 41-C , 89-H ) :   0.9946
B( 42-C , 43-C ) :   1.3933 B( 42-C , 63-C ) :   1.0236 B( 43-C , 44-C ) :   1.3825
B( 43-C , 90-H ) :   0.9931 B( 44-C , 91-H ) :   0.9869 B( 45-C , 46-C ) :   1.4036
B( 45-C , 92-H ) :   0.9938 B( 46-C , 47-C ) :   1.3811 B( 46-C , 93-H ) :   0.9954
B( 47-C , 48-C ) :   1.4029 B( 47-C , 62-C ) :   1.0239 B( 48-C , 49-C ) :   1.3722
B( 48-C , 94-H ) :   0.9919 B( 49-C , 95-H ) :   0.9826 B( 50-C , 51-C ) :   1.3947
B( 50-C , 96-H ) :   0.9889 B( 51-C , 52-C ) :   1.3863 B( 51-C , 97-H ) :   0.9949
B( 52-C , 53-C ) :   1.3977 B( 52-C , 60-C ) :   1.0235 B( 53-C , 54-C ) :   1.3806
B( 53-C , 98-H ) :   0.9934 B( 54-C , 99-H ) :   0.9867 B( 55-C , 56-C ) :   1.4046
B( 55-C ,100-H ) :   0.9943 B( 56-C , 57-C ) :   1.3790 B( 56-C ,101-H ) :   0.9951
B( 57-C , 58-C ) :   1.4065 B( 57-C , 61-C ) :   1.0231 B( 58-C , 59-C ) :   1.3724
B( 58-C ,102-H ) :   0.9912 B( 59-C ,103-H ) :   0.9823 B( 60-C , 66-C ) :   1.0832
B( 60-C ,104-H ) :   0.9461 B( 60-C ,105-H ) :   0.9463 B( 61-C , 67-C ) :   1.0859
B( 61-C ,106-H ) :   0.9463 B( 61-C ,107-H ) :   0.9457 B( 62-C , 65-C ) :   1.0861
B( 62-C ,108-H ) :   0.9460 B( 62-C ,109-H ) :   0.9456 B( 63-C , 64-C ) :   1.0837
B( 63-C ,110-H ) :   0.9461 B( 63-C ,111-H ) :   0.9465 B( 64-C ,112-H ) :   0.9737
B( 64-C ,113-H ) :   0.9738 B( 64-C ,114-H ) :   0.9732 B( 65-C ,115-H ) :   0.9731
B( 65-C ,116-H ) :   0.9735 B( 65-C ,117-H ) :   0.9729 B( 66-C ,118-H ) :   0.9732
B( 66-C ,119-H ) :   0.9742 B( 66-C ,120-H ) :   0.9735 B( 67-C ,121-H ) :   0.9727
B( 67-C ,122-H ) :   0.9735 B( 67-C ,123-H ) :   0.9734 B( 68-C , 69-C ) :   1.7013
B( 68-C ,124-H ) :   0.9550 B( 69-C , 72-C ) :   1.0934 B( 69-C , 73-C ) :   1.0869
B( 70-C , 71-C ) :   1.7563 B( 70-C ,125-H ) :   0.9570 B( 71-C , 74-C ) :   1.0881
B( 71-C , 75-C ) :   1.0890 B( 72-C , 76-N ) :   3.0377 B( 73-C , 77-N ) :   2.9760
B( 74-C , 79-N ) :   3.0392 B( 75-C , 78-N ) :   3.0318

-----------------------------------------------------------------------------
         ABSORPTION SPECTRUM VIA TRANSITION ELECTRIC DIPOLE MOMENTS
-----------------------------------------------------------------------------
State   Energy  Wavelength   fosc         T2         TX        TY        TZ
        (cm-1)    (nm)                  (au**2)     (au)      (au)      (au)
-----------------------------------------------------------------------------
   0   18644.2    536.4   2.951817124  52.12200   5.57294  -1.76306   4.23744
   1   23345.0    428.4   0.054278133   0.76543  -0.67221   0.51018   0.23083
   2   31413.9    318.3   0.080857209   0.84737   0.51780  -0.51620  -0.55927
   3   32034.6    312.2   0.011847694   0.12176  -0.25375  -0.11729  -0.20883
   4   34191.8    292.5   0.202751980   1.95217  -0.81283   0.17542  -1.12282
   5   35903.9    278.5   0.022118728   0.20281   0.34699  -0.24553   0.14874
   6   36282.4    275.6   0.183320506   1.66338  -0.24084  -0.51291  -1.15857
   7   36636.0    273.0   0.021723823   0.19521   0.13802  -0.00297   0.41970
   8   36842.7    271.4   0.018532736   0.16560   0.18283  -0.20270   0.30181
   9   37175.6    269.0   0.275098247   2.43616  -0.83536   0.20550  -1.30234
  10   38325.3    260.9   0.022011341   0.18908  -0.26606   0.29413   0.17826
  11   39275.7    254.6   0.024991533   0.20948   0.36944  -0.25161   0.09843
  12   40054.7    249.7   0.003706806   0.03047   0.02870  -0.17134  -0.01693

Dispersion correction           -0.079529378
FINAL SINGLE POINT ENERGY     -4646.062592757354

DIPOLE MOMENT
-------------
                                X             Y             Z
Electronic contribution:     -6.07825       0.14105       7.05075
Nuclear contribution   :      6.53962      -2.05587      -8.51673
                        -----------------------------------------
Total Dipole Moment    :      0.46137      -1.91482      -1.46598
                        -----------------------------------------
Magnitude (a.u.)       :      2.45530
Magnitude (Debye)      :      6.24089

Rotational constants in cm-1:     0.001116     0.000327     0.000296
Rotational constants in MHz :    33.459172     9.810419     8.872613

                             ****ORCA TERMINATED NORMALLY****
TOTAL RUN TIME: 0 days 0 hours 16 minutes 26 seconds 827 msec
