                         Program Version 4.2.0 -  RELEASE  -
|  1> # ORCA input file
|  2> # SCF done       -220.954214100607          0.000262516951
|  3> ! wb97x-d3 def2-SVP def2/J RIJCOSX Grid4 TightSCF
|  4> %maxcore 5000
|  5> %tddft
|  6>     Mode sTDDFT
|  7>     Ethresh 5.0
|  8>     maxcore 5000
|  9> end
| 10>
| 11> %pal
| 12>   nprocs 6
| 13>   end
| 14> * xyz 0 1
| 15>    C       -0.05435         0.51212         1.76777
| 16>    C        0.12299         1.08072         3.06545
| 17>    C       -0.74529         2.11508         3.49667
| 18>    C       -0.55274         2.82056         4.72238
| 19>    C        0.50247         2.53950         5.61562
| 20>    C        1.29842         1.46286         5.20486
| 21>    C        1.13558         0.74663         3.98782
| 22>    S        2.63398         0.85107         6.13326
| 23>    C        2.93953        -0.36261         4.94158
| 24>    C        2.10057        -0.30391         3.88999
| 25>    C        0.76716         3.25759         6.80881
| 26>    C        0.19171         4.38552         7.29935
| 27>    C        0.68395         4.96307         8.55154
| 28>    N        0.02424         6.14944         8.84568
| 29>    C       -0.91029         6.53309         7.94369
| 30>    S       -1.08201         5.37591         6.63295
| 31>    C       -1.70836         7.65199         7.95198
| 32>    C        0.41146         6.89962        10.02583
| 33>    C        1.41384         7.99658         9.68716
| 34>    O        1.54784         4.49539         9.26009
| 35>    C       -2.61251         7.82867         6.88573
| 36>    C       -1.72650         8.67198         8.91582
| 37>    N       -1.78678         9.53884         9.66799
| 38>    N       -3.34026         7.96571         6.00826
| 39>    N       -1.83090         2.65212         2.91038
| 40>    N       -2.23308         3.57779         3.73021
| 41>    N       -1.52829         3.72817         4.81525
| 42>    S        1.20248        -0.37941         0.92047
| 43>    C        0.21582        -0.48759        -0.47581
| 44>    C       -1.02663         0.10078        -0.29074
| 45>    C       -1.17459         0.67372         0.96506
| 46>    C        0.36672        -0.95415        -1.81751
| 47>    C       -0.83278        -0.63136        -2.49519
| 48>    C       -1.84062         0.00117        -1.55101
| 49>    C        1.43840        -1.56584        -2.46439
| 50>    C        1.29986        -1.82980        -3.80696
| 51>    C        0.10945        -1.48346        -4.48772
| 52>    C       -0.97227        -0.89632        -3.83658
| 53>    C        2.31709        -2.43526        -4.76142
| 54>    C        1.55086        -2.40426        -6.05637
| 55>    C        0.29989        -1.84032        -5.85659
| 56>    C        1.77056        -2.77313        -7.37802
| 57>    C        0.69760        -2.47579        -8.20440
| 58>    S       -0.61892        -1.74725        -7.29846
| 59>    C       -3.02028        -0.98411        -1.39142
| 60>    C       -2.31210         1.37831        -2.04084
| 61>    C        3.55022        -1.50597        -4.80196
| 62>    C        2.69861        -3.86752        -4.35475
| 63>    C        0.68126        -2.60606        -9.62703
| 64>    C        1.90283        -2.74549       -10.32881
| 65>    C        1.97043        -2.72409       -11.75359
| 66>    C        0.83484        -2.53700       -12.57517
| 67>    C       -0.36910        -2.52079       -11.86702
| 68>    C       -0.46245        -2.56568       -10.44547
| 69>    S       -1.94521        -2.57042       -12.59933
| 70>    C       -2.70337        -2.63501       -11.04769
| 71>    C       -1.82774        -2.61732       -10.02597
| 72>    C        1.04327        -2.39868       -13.97780
| 73>    C        0.34524        -1.69878       -14.90460
| 74>    C        0.77106        -1.67579       -16.30318
| 75>    N       -0.01583        -0.80080       -17.04438
| 76>    C       -0.98665        -0.14947       -16.35666
| 77>    S       -1.00918        -0.61692       -14.66660
| 78>    C       -1.88229         0.78413       -16.81360
| 79>    C        0.21342        -0.68912       -18.47305
| 80>    C       -0.76266        -1.55008       -19.26576
| 81>    O        1.68273        -2.31043       -16.78278
| 82>    C       -2.81319         1.34357       -15.91332
| 83>    C       -1.98743         1.27733       -18.12485
| 84>    N       -2.13070         1.72070       -19.17502
| 85>    N       -3.57555         1.80368       -15.19001
| 86>    N        3.16359        -2.87722        -9.88182
| 87>    N        3.89007        -2.93246       -10.96154
| 88>    N        3.26052        -2.84001       -12.09818
| 89>    C       -3.37682         4.39993         3.45255
| 90>    C       -2.95390         5.83899         3.18245
| 91>    C        5.31867        -3.05602       -10.89909
| 92>    C        5.94684        -1.74372       -10.44142
| 93>    C       -4.03174        -0.60368        -0.31838
| 94>    C       -1.15367         2.33551        -2.29652
| 95>    C        4.58570        -1.84946        -5.86508
| 96>    C        1.48372        -4.77585        -4.20425
| 97>    H        3.73853        -1.05794         5.10837
| 98>    H        2.14622        -1.00328         3.07743
| 99>    H        1.57105         2.86884         7.42661
|100>    H       -0.48104         7.31899        10.49337
|101>    H        0.87162         6.17453        10.70276
|102>    H        0.98258         8.72174         9.00094
|103>    H        1.69914         8.51589        10.59704
|104>    H        2.30408         7.56397         9.23616
|105>    H       -2.03674         1.21304         1.30745
|106>    H        2.33857        -1.80895        -1.92019
|107>    H       -1.87043        -0.64882        -4.38183
|108>    H        2.65426        -3.24702        -7.75997
|109>    H       -3.52644        -1.06382        -2.35573
|110>    H       -2.60626        -1.96763        -1.15344
|111>    H       -2.88610         1.24648        -2.96010
|112>    H       -2.97033         1.81320        -1.28806
|113>    H        3.19600        -0.48586        -4.97234
|114>    H        4.02231        -1.53073        -3.81758
|115>    H        3.36122        -4.28470        -5.11398
|116>    H        3.24405        -3.82973        -3.40960
|117>    H       -3.77309        -2.68848       -11.00138
|118>    H       -2.13489        -2.68167        -8.99954
|119>    H        1.95211        -2.86005       -14.35005
|120>    H        0.14015         0.35830       -18.77040
|121>    H        1.23548        -1.04256       -18.63595
|122>    H       -1.78863        -1.22527       -19.10920
|123>    H       -0.53669        -1.46595       -20.32444
|124>    H       -0.66974        -2.59240       -18.96900
|125>    H       -3.87506         3.96264         2.58563
|126>    H       -4.03937         4.36829         4.32090
|127>    H       -2.26847         5.88474         2.33949
|128>    H       -3.82952         6.43975         2.95768
|129>    H       -2.47102         6.25777         4.06126
|130>    H        5.56164        -3.85535       -10.19457
|131>    H        5.65726        -3.32466       -11.90065
|132>    H        5.56696        -1.47100        -9.45986
|133>    H        7.02587        -1.85219       -10.38345
|134>    H        5.71247        -0.94716       -11.14330
|135>    H       -4.49917         0.35272        -0.53589
|136>    H       -4.81365        -1.35865        -0.27467
|137>    H       -3.55748        -0.54915         0.65774
|138>    H       -0.47861         1.93351        -3.04891
|139>    H       -1.53076         3.29276        -2.64856
|140>    H       -0.58809         2.50508        -1.38298
|141>    H        4.15634        -1.77634        -6.86027
|142>    H        5.41527        -1.14852        -5.79915
|143>    H        4.98011        -2.85221        -5.72452
|144>    H        0.93602        -4.84257        -5.14166
|145>    H        1.79839        -5.77710        -3.91947
|146>    H        0.80952        -4.39594        -3.43977
|147> *
|148>
|149>                          ****END OF INPUT****

CARTESIAN COORDINATES (ANGSTROEM)
---------------------------------
  C     -0.054350    0.512120    1.767770
  C      0.122990    1.080720    3.065450
  C     -0.745290    2.115080    3.496670
  C     -0.552740    2.820560    4.722380
  C      0.502470    2.539500    5.615620
  C      1.298420    1.462860    5.204860
  C      1.135580    0.746630    3.987820
  S      2.633980    0.851070    6.133260
  C      2.939530   -0.362610    4.941580
  C      2.100570   -0.303910    3.889990
  C      0.767160    3.257590    6.808810
  C      0.191710    4.385520    7.299350
  C      0.683950    4.963070    8.551540
  N      0.024240    6.149440    8.845680
  C     -0.910290    6.533090    7.943690
  S     -1.082010    5.375910    6.632950
  C     -1.708360    7.651990    7.951980
  C      0.411460    6.899620   10.025830
  C      1.413840    7.996580    9.687160
  O      1.547840    4.495390    9.260090
  C     -2.612510    7.828670    6.885730
  C     -1.726500    8.671980    8.915820
  N     -1.786780    9.538840    9.667990
  N     -3.340260    7.965710    6.008260
  N     -1.830900    2.652120    2.910380
  N     -2.233080    3.577790    3.730210
  N     -1.528290    3.728170    4.815250
  S      1.202480   -0.379410    0.920470
  C      0.215820   -0.487590   -0.475810
  C     -1.026630    0.100780   -0.290740
  C     -1.174590    0.673720    0.965060
  C      0.366720   -0.954150   -1.817510
  C     -0.832780   -0.631360   -2.495190
  C     -1.840620    0.001170   -1.551010
  C      1.438400   -1.565840   -2.464390
  C      1.299860   -1.829800   -3.806960
  C      0.109450   -1.483460   -4.487720
  C     -0.972270   -0.896320   -3.836580
  C      2.317090   -2.435260   -4.761420
  C      1.550860   -2.404260   -6.056370
  C      0.299890   -1.840320   -5.856590
  C      1.770560   -2.773130   -7.378020
  C      0.697600   -2.475790   -8.204400
  S     -0.618920   -1.747250   -7.298460
  C     -3.020280   -0.984110   -1.391420
  C     -2.312100    1.378310   -2.040840
  C      3.550220   -1.505970   -4.801960
  C      2.698610   -3.867520   -4.354750
  C      0.681260   -2.606060   -9.627030
  C      1.902830   -2.745490  -10.328810
  C      1.970430   -2.724090  -11.753590
  C      0.834840   -2.537000  -12.575170
  C     -0.369100   -2.520790  -11.867020
  C     -0.462450   -2.565680  -10.445470
  S     -1.945210   -2.570420  -12.599330
  C     -2.703370   -2.635010  -11.047690
  C     -1.827740   -2.617320  -10.025970
  C      1.043270   -2.398680  -13.977800
  C      0.345240   -1.698780  -14.904600
  C      0.771060   -1.675790  -16.303180
  N     -0.015830   -0.800800  -17.044380
  C     -0.986650   -0.149470  -16.356660
  S     -1.009180   -0.616920  -14.666600
  C     -1.882290    0.784130  -16.813600
  C      0.213420   -0.689120  -18.473050
  C     -0.762660   -1.550080  -19.265760
  O      1.682730   -2.310430  -16.782780
  C     -2.813190    1.343570  -15.913320
  C     -1.987430    1.277330  -18.124850
  N     -2.130700    1.720700  -19.175020
  N     -3.575550    1.803680  -15.190010
  N      3.163590   -2.877220   -9.881820
  N      3.890070   -2.932460  -10.961540
  N      3.260520   -2.840010  -12.098180
  C     -3.376820    4.399930    3.452550
  C     -2.953900    5.838990    3.182450
  C      5.318670   -3.056020  -10.899090
  C      5.946840   -1.743720  -10.441420
  C     -4.031740   -0.603680   -0.318380
  C     -1.153670    2.335510   -2.296520
  C      4.585700   -1.849460   -5.865080
  C      1.483720   -4.775850   -4.204250
  H      3.738530   -1.057940    5.108370
  H      2.146220   -1.003280    3.077430
  H      1.571050    2.868840    7.426610
  H     -0.481040    7.318990   10.493370
  H      0.871620    6.174530   10.702760
  H      0.982580    8.721740    9.000940
  H      1.699140    8.515890   10.597040
  H      2.304080    7.563970    9.236160
  H     -2.036740    1.213040    1.307450
  H      2.338570   -1.808950   -1.920190
  H     -1.870430   -0.648820   -4.381830
  H      2.654260   -3.247020   -7.759970
  H     -3.526440   -1.063820   -2.355730
  H     -2.606260   -1.967630   -1.153440
  H     -2.886100    1.246480   -2.960100
  H     -2.970330    1.813200   -1.288060
  H      3.196000   -0.485860   -4.972340
  H      4.022310   -1.530730   -3.817580
  H      3.361220   -4.284700   -5.113980
  H      3.244050   -3.829730   -3.409600
  H     -3.773090   -2.688480  -11.001380
  H     -2.134890   -2.681670   -8.999540
  H      1.952110   -2.860050  -14.350050
  H      0.140150    0.358300  -18.770400
  H      1.235480   -1.042560  -18.635950
  H     -1.788630   -1.225270  -19.109200
  H     -0.536690   -1.465950  -20.324440
  H     -0.669740   -2.592400  -18.969000
  H     -3.875060    3.962640    2.585630
  H     -4.039370    4.368290    4.320900
  H     -2.268470    5.884740    2.339490
  H     -3.829520    6.439750    2.957680
  H     -2.471020    6.257770    4.061260
  H      5.561640   -3.855350  -10.194570
  H      5.657260   -3.324660  -11.900650
  H      5.566960   -1.471000   -9.459860
  H      7.025870   -1.852190  -10.383450
  H      5.712470   -0.947160  -11.143300
  H     -4.499170    0.352720   -0.535890
  H     -4.813650   -1.358650   -0.274670
  H     -3.557480   -0.549150    0.657740
  H     -0.478610    1.933510   -3.048910
  H     -1.530760    3.292760   -2.648560
  H     -0.588090    2.505080   -1.382980
  H      4.156340   -1.776340   -6.860270
  H      5.415270   -1.148520   -5.799150
  H      4.980110   -2.852210   -5.724520
  H      0.936020   -4.842570   -5.141660
  H      1.798390   -5.777100   -3.919470
  H      0.809520   -4.395940   -3.439770

 Total Charge           Charge          ....    0
 Multiplicity           Mult            ....    1
 Number of Electrons    NEL             ....  618
 Basis Dimension        Dim             .... 1422

ORBITAL ENERGIES
----------------

  NO   OCC          E(Eh)            E(eV)
   0   2.0000     -89.000278     -2421.8207
   1   2.0000     -88.992730     -2421.6153
   2   2.0000     -88.990853     -2421.5642
   3   2.0000     -88.989718     -2421.5333
   4   2.0000     -88.984232     -2421.3840
   5   2.0000     -88.983328     -2421.3595
   6   2.0000     -19.251890      -523.8706
   7   2.0000     -19.248519      -523.7788
   8   2.0000     -14.588593      -396.9758
   9   2.0000     -14.585666      -396.8961
  10   2.0000     -14.526024      -395.2732
  11   2.0000     -14.521860      -395.1599
  12   2.0000     -14.491120      -394.3234
  13   2.0000     -14.488691      -394.2573
  14   2.0000     -14.487298      -394.2194
  15   2.0000     -14.485657      -394.1748
  16   2.0000     -14.437682      -392.8693
  17   2.0000     -14.435089      -392.7987
  18   2.0000     -14.434807      -392.7911
  19   2.0000     -14.433653      -392.7597
  20   2.0000     -10.436314      -283.9865
  21   2.0000     -10.432678      -283.8876
  22   2.0000     -10.429173      -283.7922
  23   2.0000     -10.416720      -283.4534
  24   2.0000     -10.364083      -282.0210
  25   2.0000     -10.363377      -282.0018
  26   2.0000     -10.358959      -281.8816
  27   2.0000     -10.358268      -281.8628
  28   2.0000     -10.358168      -281.8601
  29   2.0000     -10.358065      -281.8573
  30   2.0000     -10.357665      -281.8464
  31   2.0000     -10.355838      -281.7967
  32   2.0000     -10.352291      -281.7002
  33   2.0000     -10.352207      -281.6979
  34   2.0000     -10.350028      -281.6386
  35   2.0000     -10.349394      -281.6213
  36   2.0000     -10.348301      -281.5916
  37   2.0000     -10.347064      -281.5579
  38   2.0000     -10.346790      -281.5505
  39   2.0000     -10.345782      -281.5230
  40   2.0000     -10.345638      -281.5191
  41   2.0000     -10.345406      -281.5128
  42   2.0000     -10.344929      -281.4998
  43   2.0000     -10.344201      -281.4800
  44   2.0000     -10.342753      -281.4406
  45   2.0000     -10.342655      -281.4380
  46   2.0000     -10.340401      -281.3766
  47   2.0000     -10.339044      -281.3397
  48   2.0000     -10.338911      -281.3361
  49   2.0000     -10.337381      -281.2944
  50   2.0000     -10.337242      -281.2906
  51   2.0000     -10.336841      -281.2798
  52   2.0000     -10.334896      -281.2268
  53   2.0000     -10.334634      -281.2197
  54   2.0000     -10.333842      -281.1981
  55   2.0000     -10.333373      -281.1854
  56   2.0000     -10.324073      -280.9323
  57   2.0000     -10.322902      -280.9004
  58   2.0000     -10.320768      -280.8424
  59   2.0000     -10.320233      -280.8278
  60   2.0000     -10.317565      -280.7552
  61   2.0000     -10.316024      -280.7133
  62   2.0000     -10.313745      -280.6513
  63   2.0000     -10.313323      -280.6398
  64   2.0000     -10.313081      -280.6332
  65   2.0000     -10.312648      -280.6214
  66   2.0000     -10.312004      -280.6039
  67   2.0000     -10.311071      -280.5785
  68   2.0000     -10.310938      -280.5749
  69   2.0000     -10.306954      -280.4665
  70   2.0000     -10.306796      -280.4622
  71   2.0000     -10.303551      -280.3739
  72   2.0000     -10.303255      -280.3658
  73   2.0000     -10.302804      -280.3535
  74   2.0000     -10.301562      -280.3197
  75   2.0000     -10.298545      -280.2377
  76   2.0000     -10.297823      -280.2180
  77   2.0000     -10.295026      -280.1419
  78   2.0000     -10.290242      -280.0117
  79   2.0000     -10.288561      -279.9660
  80   2.0000     -10.284387      -279.8524
  81   2.0000     -10.282583      -279.8033
  82   2.0000      -8.114526      -220.8075
  83   2.0000      -8.105148      -220.5523
  84   2.0000      -8.103833      -220.5165
  85   2.0000      -8.102884      -220.4907
  86   2.0000      -8.099121      -220.3883
  87   2.0000      -8.098186      -220.3628
  88   2.0000      -6.074755      -165.3025
  89   2.0000      -6.070471      -165.1859
  90   2.0000      -6.065735      -165.0571
  91   2.0000      -6.064961      -165.0360
  92   2.0000      -6.063331      -164.9916
  93   2.0000      -6.062353      -164.9650
  94   2.0000      -6.060927      -164.9262
  95   2.0000      -6.059234      -164.8801
  96   2.0000      -6.058990      -164.8735
  97   2.0000      -6.058272      -164.8539
  98   2.0000      -6.058060      -164.8482
  99   2.0000      -6.056257      -164.7991
 100   2.0000      -6.055497      -164.7784
 101   2.0000      -6.055290      -164.7728
 102   2.0000      -6.054608      -164.7542
 103   2.0000      -6.053512      -164.7244
 104   2.0000      -6.050702      -164.6480
 105   2.0000      -6.049823      -164.6240
 106   2.0000      -1.272073       -34.6149
 107   2.0000      -1.267928       -34.5021
 108   2.0000      -1.200499       -32.6672
 109   2.0000      -1.196698       -32.5638
 110   2.0000      -1.129775       -30.7427
 111   2.0000      -1.124845       -30.6086
 112   2.0000      -1.053629       -28.6707
 113   2.0000      -1.051638       -28.6165
 114   2.0000      -1.047729       -28.5101
 115   2.0000      -1.044728       -28.4285
 116   2.0000      -1.040814       -28.3220
 117   2.0000      -1.036041       -28.1921
 118   2.0000      -1.035631       -28.1809
 119   2.0000      -1.033801       -28.1312
 120   2.0000      -1.018905       -27.7258
 121   2.0000      -1.017225       -27.6801
 122   2.0000      -1.014104       -27.5952
 123   2.0000      -1.012606       -27.5544
 124   2.0000      -1.001232       -27.2449
 125   2.0000      -0.997546       -27.1446
 126   2.0000      -0.992440       -27.0057
 127   2.0000      -0.981517       -26.7084
 128   2.0000      -0.962878       -26.2012
 129   2.0000      -0.960248       -26.1297
 130   2.0000      -0.951762       -25.8988
 131   2.0000      -0.949740       -25.8437
 132   2.0000      -0.945641       -25.7322
 133   2.0000      -0.939946       -25.5772
 134   2.0000      -0.937953       -25.5230
 135   2.0000      -0.917229       -24.9591
 136   2.0000      -0.897552       -24.4236
 137   2.0000      -0.894611       -24.3436
 138   2.0000      -0.880778       -23.9672
 139   2.0000      -0.880459       -23.9585
 140   2.0000      -0.879250       -23.9256
 141   2.0000      -0.878349       -23.9011
 142   2.0000      -0.877507       -23.8782
 143   2.0000      -0.875215       -23.8158
 144   2.0000      -0.874533       -23.7973
 145   2.0000      -0.870040       -23.6750
 146   2.0000      -0.869202       -23.6522
 147   2.0000      -0.868271       -23.6269
 148   2.0000      -0.856453       -23.3053
 149   2.0000      -0.847398       -23.0589
 150   2.0000      -0.832333       -22.6489
 151   2.0000      -0.823647       -22.4126
 152   2.0000      -0.811074       -22.0705
 153   2.0000      -0.808827       -22.0093
 154   2.0000      -0.807599       -21.9759
 155   2.0000      -0.799749       -21.7623
 156   2.0000      -0.790841       -21.5199
 157   2.0000      -0.787902       -21.4399
 158   2.0000      -0.784295       -21.3417
 159   2.0000      -0.775863       -21.1123
 160   2.0000      -0.768661       -20.9163
 161   2.0000      -0.758942       -20.6519
 162   2.0000      -0.754847       -20.5404
 163   2.0000      -0.742995       -20.2179
 164   2.0000      -0.740665       -20.1545
 165   2.0000      -0.739620       -20.1261
 166   2.0000      -0.732346       -19.9281
 167   2.0000      -0.731081       -19.8937
 168   2.0000      -0.728200       -19.8153
 169   2.0000      -0.725880       -19.7522
 170   2.0000      -0.721815       -19.6416
 171   2.0000      -0.711400       -19.3582
 172   2.0000      -0.697668       -18.9845
 173   2.0000      -0.692927       -18.8555
 174   2.0000      -0.687542       -18.7090
 175   2.0000      -0.681988       -18.5578
 176   2.0000      -0.677641       -18.4395
 177   2.0000      -0.676150       -18.3990
 178   2.0000      -0.674271       -18.3479
 179   2.0000      -0.671319       -18.2675
 180   2.0000      -0.669681       -18.2229
 181   2.0000      -0.665998       -18.1227
 182   2.0000      -0.663121       -18.0444
 183   2.0000      -0.657533       -17.8924
 184   2.0000      -0.656161       -17.8550
 185   2.0000      -0.651439       -17.7266
 186   2.0000      -0.646077       -17.5807
 187   2.0000      -0.643903       -17.5215
 188   2.0000      -0.639794       -17.4097
 189   2.0000      -0.635405       -17.2903
 190   2.0000      -0.627256       -17.0685
 191   2.0000      -0.618215       -16.8225
 192   2.0000      -0.617596       -16.8057
 193   2.0000      -0.614578       -16.7235
 194   2.0000      -0.610766       -16.6198
 195   2.0000      -0.607907       -16.5420
 196   2.0000      -0.604163       -16.4401
 197   2.0000      -0.598943       -16.2981
 198   2.0000      -0.591627       -16.0990
 199   2.0000      -0.590123       -16.0581
 200   2.0000      -0.584687       -15.9101
 201   2.0000      -0.584268       -15.8987
 202   2.0000      -0.580699       -15.8016
 203   2.0000      -0.579689       -15.7741
 204   2.0000      -0.577509       -15.7148
 205   2.0000      -0.575032       -15.6474
 206   2.0000      -0.574227       -15.6255
 207   2.0000      -0.570845       -15.5335
 208   2.0000      -0.567666       -15.4470
 209   2.0000      -0.566664       -15.4197
 210   2.0000      -0.566121       -15.4049
 211   2.0000      -0.562265       -15.3000
 212   2.0000      -0.560297       -15.2465
 213   2.0000      -0.557104       -15.1596
 214   2.0000      -0.556167       -15.1341
 215   2.0000      -0.555106       -15.1052
 216   2.0000      -0.551047       -14.9948
 217   2.0000      -0.548748       -14.9322
 218   2.0000      -0.546131       -14.8610
 219   2.0000      -0.543046       -14.7770
 220   2.0000      -0.541670       -14.7396
 221   2.0000      -0.538770       -14.6607
 222   2.0000      -0.534528       -14.5452
 223   2.0000      -0.533560       -14.5189
 224   2.0000      -0.530491       -14.4354
 225   2.0000      -0.526696       -14.3321
 226   2.0000      -0.523432       -14.2433
 227   2.0000      -0.519625       -14.1397
 228   2.0000      -0.518870       -14.1192
 229   2.0000      -0.517341       -14.0776
 230   2.0000      -0.515476       -14.0268
 231   2.0000      -0.514194       -13.9919
 232   2.0000      -0.512914       -13.9571
 233   2.0000      -0.511244       -13.9116
 234   2.0000      -0.510501       -13.8914
 235   2.0000      -0.508651       -13.8411
 236   2.0000      -0.504181       -13.7195
 237   2.0000      -0.501668       -13.6511
 238   2.0000      -0.500347       -13.6151
 239   2.0000      -0.499337       -13.5877
 240   2.0000      -0.497592       -13.5402
 241   2.0000      -0.495613       -13.4863
 242   2.0000      -0.494140       -13.4462
 243   2.0000      -0.492890       -13.4122
 244   2.0000      -0.490316       -13.3422
 245   2.0000      -0.489199       -13.3118
 246   2.0000      -0.486641       -13.2422
 247   2.0000      -0.485320       -13.2062
 248   2.0000      -0.483429       -13.1548
 249   2.0000      -0.482825       -13.1383
 250   2.0000      -0.480660       -13.0794
 251   2.0000      -0.477790       -13.0013
 252   2.0000      -0.477472       -12.9927
 253   2.0000      -0.474590       -12.9142
 254   2.0000      -0.471786       -12.8379
 255   2.0000      -0.470809       -12.8114
 256   2.0000      -0.469844       -12.7851
 257   2.0000      -0.468967       -12.7612
 258   2.0000      -0.468527       -12.7493
 259   2.0000      -0.468149       -12.7390
 260   2.0000      -0.465735       -12.6733
 261   2.0000      -0.465451       -12.6656
 262   2.0000      -0.463366       -12.6088
 263   2.0000      -0.461714       -12.5639
 264   2.0000      -0.460244       -12.5239
 265   2.0000      -0.459511       -12.5039
 266   2.0000      -0.457558       -12.4508
 267   2.0000      -0.456482       -12.4215
 268   2.0000      -0.454252       -12.3608
 269   2.0000      -0.452938       -12.3251
 270   2.0000      -0.451025       -12.2730
 271   2.0000      -0.450910       -12.2699
 272   2.0000      -0.448949       -12.2165
 273   2.0000      -0.447314       -12.1720
 274   2.0000      -0.446122       -12.1396
 275   2.0000      -0.445355       -12.1187
 276   2.0000      -0.441513       -12.0142
 277   2.0000      -0.435546       -11.8518
 278   2.0000      -0.433870       -11.8062
 279   2.0000      -0.433471       -11.7953
 280   2.0000      -0.432233       -11.7616
 281   2.0000      -0.431405       -11.7391
 282   2.0000      -0.428368       -11.6565
 283   2.0000      -0.427317       -11.6279
 284   2.0000      -0.425540       -11.5795
 285   2.0000      -0.422656       -11.5010
 286   2.0000      -0.420583       -11.4446
 287   2.0000      -0.419825       -11.4240
 288   2.0000      -0.415443       -11.3048
 289   2.0000      -0.414300       -11.2737
 290   2.0000      -0.406096       -11.0504
 291   2.0000      -0.399793       -10.8789
 292   2.0000      -0.397989       -10.8298
 293   2.0000      -0.394407       -10.7324
 294   2.0000      -0.392760       -10.6876
 295   2.0000      -0.386967       -10.5299
 296   2.0000      -0.362035        -9.8515
 297   2.0000      -0.359390        -9.7795
 298   2.0000      -0.358907        -9.7663
 299   2.0000      -0.357639        -9.7319
 300   2.0000      -0.351000        -9.5512
 301   2.0000      -0.349893        -9.5211
 302   2.0000      -0.347900        -9.4668
 303   2.0000      -0.345978        -9.4145
 304   2.0000      -0.328869        -8.9490
 305   2.0000      -0.324273        -8.8239
 306   2.0000      -0.308603        -8.3975
 307   2.0000      -0.278365        -7.5747
 308   2.0000      -0.256987        -6.9930
 309   0.0000      -0.068602        -1.8668
 310   0.0000      -0.057470        -1.5638
 311   0.0000      -0.015302        -0.4164
 312   0.0000      -0.004794        -0.1305
 313   0.0000       0.014131         0.3845

MULLIKEN ATOMIC CHARGES
-----------------------
   0 C :   -0.181691
   1 C :    0.128307
   2 C :   -0.017610
   3 C :    0.027619
   4 C :    0.033170
   5 C :   -0.141450
   6 C :    0.004240
   7 S :    0.093338
   8 C :   -0.050455
   9 C :   -0.012719
  10 C :   -0.067323
  11 C :   -0.132449
  12 C :    0.276676
  13 N :   -0.290481
  14 C :    0.218735
  15 S :    0.128899
  16 C :   -0.394313
  17 C :    0.049594
  18 C :   -0.038968
  19 O :   -0.212704
  20 C :   -0.125607
  21 C :   -0.131095
  22 N :    0.119636
  23 N :    0.066360
  24 N :   -0.099189
  25 N :   -0.067480
  26 N :   -0.130787
  27 S :    0.123568
  28 C :   -0.032497
  29 C :    0.032524
  30 C :   -0.033801
  31 C :    0.031532
  32 C :    0.004151
  33 C :   -0.213325
  34 C :   -0.088748
  35 C :    0.009067
  36 C :    0.032245
  37 C :   -0.086744
  38 C :   -0.217125
  39 C :    0.033539
  40 C :   -0.039354
  41 C :   -0.031256
  42 C :   -0.176804
  43 S :    0.133153
  44 C :    0.047013
  45 C :    0.016266
  46 C :    0.038873
  47 C :    0.022879
  48 C :    0.133379
  49 C :   -0.025069
  50 C :   -0.005901
  51 C :   -0.005540
  52 C :   -0.155745
  53 C :    0.007460
  54 S :    0.113142
  55 C :   -0.055878
  56 C :   -0.007566
  57 C :   -0.036636
  58 C :   -0.165350
  59 C :    0.284694
  60 N :   -0.296305
  61 C :    0.178838
  62 S :    0.155335
  63 C :   -0.360526
  64 C :    0.048909
  65 C :   -0.043353
  66 O :   -0.205971
  67 C :   -0.153700
  68 C :   -0.126946
  69 N :    0.116826
  70 N :    0.092968
  71 N :   -0.107674
  72 N :   -0.082959
  73 N :   -0.080418
  74 C :    0.096951
  75 C :   -0.057638
  76 C :    0.106992
  77 C :   -0.074331
  78 C :   -0.020437
  79 C :   -0.016120
  80 C :   -0.025286
  81 C :   -0.019135
  82 H :    0.062109
  83 H :    0.026942
  84 H :    0.049260
  85 H :    0.075229
  86 H :    0.070440
  87 H :    0.053349
  88 H :    0.055409
  89 H :    0.045344
  90 H :    0.018166
  91 H :   -0.016712
  92 H :   -0.015566
  93 H :    0.018184
  94 H :    0.019984
  95 H :    0.028345
  96 H :    0.022688
  97 H :    0.030546
  98 H :    0.031995
  99 H :    0.019214
 100 H :    0.029801
 101 H :    0.021063
 102 H :    0.065689
 103 H :    0.026527
 104 H :    0.065666
 105 H :    0.076473
 106 H :    0.072328
 107 H :    0.054440
 108 H :    0.058404
 109 H :    0.046323
 110 H :    0.059279
 111 H :    0.074520
 112 H :    0.043912
 113 H :    0.061586
 114 H :    0.061255
 115 H :    0.063297
 116 H :    0.066372
 117 H :    0.060691
 118 H :    0.054455
 119 H :    0.054485
 120 H :    0.024829
 121 H :    0.038824
 122 H :    0.037284
 123 H :    0.038921
 124 H :    0.033079
 125 H :    0.039213
 126 H :    0.041859
 127 H :    0.035815
 128 H :    0.022490
 129 H :    0.039710
 130 H :    0.032058
 131 H :    0.040006
Sum of atomic charges:   -0.0000000

LOEWDIN ATOMIC CHARGES
----------------------
   0 C :   -0.174181
   1 C :   -0.011961
   2 C :   -0.047540
   3 C :   -0.032149
   4 C :   -0.087098
   5 C :   -0.123660
   6 C :   -0.058729
   7 S :    0.403092
   8 C :   -0.151005
   9 C :   -0.072245
  10 C :    0.016560
  11 C :   -0.214664
  12 C :    0.081763
  13 N :   -0.009243
  14 C :   -0.027873
  15 S :    0.450881
  16 C :   -0.234317
  17 C :    0.040444
  18 C :   -0.057968
  19 O :   -0.176997
  20 C :   -0.025552
  21 C :   -0.028074
  22 N :   -0.072572
  23 N :   -0.077810
  24 N :   -0.081285
  25 N :    0.167738
  26 N :   -0.108176
  27 S :    0.440538
  28 C :   -0.170542
  29 C :   -0.045609
  30 C :   -0.033440
  31 C :   -0.034051
  32 C :    0.008510
  33 C :   -0.039119
  34 C :   -0.025464
  35 C :    0.006914
  36 C :   -0.033081
  37 C :   -0.025451
  38 C :   -0.038585
  39 C :   -0.045815
  40 C :   -0.172353
  41 C :   -0.034978
  42 C :   -0.173386
  43 S :    0.444194
  44 C :   -0.012057
  45 C :   -0.018192
  46 C :   -0.012934
  47 C :   -0.017357
  48 C :   -0.015015
  49 C :   -0.047682
  50 C :   -0.037542
  51 C :   -0.086392
  52 C :   -0.139945
  53 C :   -0.054809
  54 S :    0.408939
  55 C :   -0.150621
  56 C :   -0.070464
  57 C :    0.025247
  58 C :   -0.227743
  59 C :    0.083431
  60 N :   -0.012214
  61 C :   -0.020269
  62 S :    0.419793
  63 C :   -0.224980
  64 C :    0.040981
  65 C :   -0.058353
  66 O :   -0.170715
  67 C :   -0.034435
  68 C :   -0.026598
  69 N :   -0.067225
  70 N :   -0.059170
  71 N :   -0.093009
  72 N :    0.163172
  73 N :   -0.093734
  74 C :    0.035302
  75 C :   -0.054768
  76 C :    0.035615
  77 C :   -0.059095
  78 C :   -0.061113
  79 C :   -0.058156
  80 C :   -0.062313
  81 C :   -0.058533
  82 H :    0.032257
  83 H :    0.020048
  84 H :    0.043874
  85 H :    0.037592
  86 H :    0.040470
  87 H :    0.030490
  88 H :    0.040173
  89 H :    0.031449
  90 H :    0.029068
  91 H :    0.028419
  92 H :    0.029091
  93 H :    0.029441
  94 H :    0.021909
  95 H :    0.029025
  96 H :    0.022641
  97 H :    0.023915
  98 H :    0.030031
  99 H :    0.021267
 100 H :    0.023331
 101 H :    0.022252
 102 H :    0.033721
 103 H :    0.021546
 104 H :    0.057666
 105 H :    0.037776
 106 H :    0.041172
 107 H :    0.030613
 108 H :    0.041143
 109 H :    0.031860
 110 H :    0.038881
 111 H :    0.044354
 112 H :    0.030699
 113 H :    0.042231
 114 H :    0.030074
 115 H :    0.039556
 116 H :    0.042203
 117 H :    0.033842
 118 H :    0.037061
 119 H :    0.035283
 120 H :    0.022241
 121 H :    0.031038
 122 H :    0.026655
 123 H :    0.026682
 124 H :    0.027333
 125 H :    0.027516
 126 H :    0.026654
 127 H :    0.029829
 128 H :    0.021684
 129 H :    0.027482
 130 H :    0.026838
 131 H :    0.026911

  Mayer bond orders larger than 0.100000
B(  0-C ,  1-C ) :   1.1332 B(  0-C , 27-S ) :   1.0961 B(  0-C , 30-C ) :   1.4764
B(  1-C ,  2-C ) :   1.2366 B(  1-C ,  6-C ) :   1.3672 B(  2-C ,  3-C ) :   1.2377
B(  2-C , 24-N ) :   1.4230 B(  3-C ,  4-C ) :   1.1905 B(  3-C , 26-N ) :   1.4219
B(  4-C ,  5-C ) :   1.4195 B(  4-C , 10-C ) :   1.1101 B(  5-C ,  6-C ) :   1.2289
B(  5-C ,  7-S ) :   1.0977 B(  6-C ,  9-C ) :   1.1607 B(  7-S ,  8-C ) :   1.0945
B(  8-C ,  9-C ) :   1.6951 B(  8-C , 82-H ) :   0.9667 B(  9-C , 83-H ) :   0.9741
B( 10-C , 11-C ) :   1.7640 B( 10-C , 84-H ) :   0.9436 B( 11-C , 12-C ) :   0.9652
B( 11-C , 15-S ) :   0.9926 B( 12-C , 13-N ) :   1.0418 B( 12-C , 19-O ) :   2.1133
B( 13-N , 14-C ) :   1.1926 B( 13-N , 17-C ) :   0.8933 B( 14-C , 15-S ) :   1.0365
B( 14-C , 16-C ) :   1.5631 B( 16-C , 20-C ) :   1.1425 B( 16-C , 21-C ) :   1.1632
B( 17-C , 18-C ) :   1.1043 B( 17-C , 85-H ) :   0.9469 B( 17-C , 86-H ) :   0.9341
B( 18-C , 87-H ) :   0.9689 B( 18-C , 88-H ) :   0.9722 B( 18-C , 89-H ) :   0.9673
B( 20-C , 23-N ) :   2.9687 B( 21-C , 22-N ) :   2.9852 B( 24-N , 25-N ) :   1.2701
B( 24-N , 26-N ) :   0.1594 B( 25-N , 26-N ) :   1.2529 B( 25-N , 74-C ) :   0.9004
B( 27-S , 28-C ) :   1.1093 B( 28-C , 29-C ) :   1.5291 B( 28-C , 31-C ) :   1.0675
B( 29-C , 30-C ) :   1.2912 B( 29-C , 33-C ) :   0.9290 B( 30-C , 90-H ) :   0.9848
B( 31-C , 32-C ) :   1.3751 B( 31-C , 34-C ) :   1.3258 B( 32-C , 33-C ) :   0.9191
B( 32-C , 37-C ) :   1.4240 B( 33-C , 44-C ) :   1.0113 B( 33-C , 45-C ) :   1.0299
B( 34-C , 35-C ) :   1.4220 B( 34-C , 91-H ) :   1.0023 B( 35-C , 36-C ) :   1.3755
B( 35-C , 38-C ) :   0.9201 B( 36-C , 37-C ) :   1.3249 B( 36-C , 40-C ) :   1.0688
B( 37-C , 92-H ) :   1.0028 B( 38-C , 39-C ) :   0.9325 B( 38-C , 46-C ) :   1.0155
B( 38-C , 47-C ) :   1.0228 B( 39-C , 40-C ) :   1.5306 B( 39-C , 41-C ) :   1.2846
B( 40-C , 43-S ) :   1.1101 B( 41-C , 42-C ) :   1.4839 B( 41-C , 93-H ) :   0.9893
B( 42-C , 43-S ) :   1.0977 B( 42-C , 48-C ) :   1.1201 B( 44-C , 78-C ) :   1.0968
B( 44-C , 94-H ) :   0.9442 B( 44-C , 95-H ) :   0.9465 B( 45-C , 79-C ) :   1.0905
B( 45-C , 96-H ) :   0.9467 B( 45-C , 97-H ) :   0.9454 B( 46-C , 80-C ) :   1.0992
B( 46-C , 98-H ) :   0.9478 B( 46-C , 99-H ) :   0.9426 B( 47-C , 81-C ) :   1.0886
B( 47-C ,100-H ) :   0.9471 B( 47-C ,101-H ) :   0.9480 B( 48-C , 49-C ) :   1.2340
B( 48-C , 53-C ) :   1.3750 B( 49-C , 50-C ) :   1.2267 B( 49-C , 71-N ) :   1.4267
B( 50-C , 51-C ) :   1.2236 B( 50-C , 73-N ) :   1.4798 B( 51-C , 52-C ) :   1.4260
B( 51-C , 57-C ) :   1.1055 B( 52-C , 53-C ) :   1.2201 B( 52-C , 54-S ) :   1.0927
B( 53-C , 56-C ) :   1.1668 B( 54-S , 55-C ) :   1.0928 B( 55-C , 56-C ) :   1.6876
B( 55-C ,102-H ) :   0.9675 B( 56-C ,103-H ) :   0.9753 B( 57-C , 58-C ) :   1.7365
B( 57-C ,104-H ) :   0.9487 B( 58-C , 59-C ) :   0.9665 B( 58-C , 62-S ) :   0.9920
B( 59-C , 60-N ) :   1.0334 B( 59-C , 66-O ) :   2.1307 B( 60-N , 61-C ) :   1.1896
B( 60-N , 64-C ) :   0.8937 B( 61-C , 62-S ) :   1.0837 B( 61-C , 63-C ) :   1.5634
B( 63-C , 67-C ) :   1.1337 B( 63-C , 68-C ) :   1.1617 B( 64-C , 65-C ) :   1.1027
B( 64-C ,105-H ) :   0.9463 B( 64-C ,106-H ) :   0.9327 B( 65-C ,107-H ) :   0.9693
B( 65-C ,108-H ) :   0.9721 B( 65-C ,109-H ) :   0.9674 B( 67-C , 70-N ) :   3.0192
B( 68-C , 69-N ) :   2.9819 B( 71-N , 72-N ) :   1.2390 B( 71-N , 73-N ) :   0.1661
B( 72-N , 73-N ) :   1.2388 B( 72-N , 76-C ) :   0.9064 B( 74-C , 75-C ) :   1.0974
B( 74-C ,110-H ) :   0.9482 B( 74-C ,111-H ) :   0.9496 B( 75-C ,112-H ) :   0.9677
B( 75-C ,113-H ) :   0.9690 B( 75-C ,114-H ) :   0.9656 B( 76-C , 77-C ) :   1.0988
B( 76-C ,115-H ) :   0.9518 B( 76-C ,116-H ) :   0.9483 B( 77-C ,117-H ) :   0.9714
B( 77-C ,118-H ) :   0.9711 B( 77-C ,119-H ) :   0.9682 B( 78-C ,120-H ) :   0.9682
B( 78-C ,121-H ) :   0.9675 B( 78-C ,122-H ) :   0.9666 B( 79-C ,123-H ) :   0.9665
B( 79-C ,124-H ) :   0.9704 B( 79-C ,125-H ) :   0.9682 B( 80-C ,126-H ) :   0.9643
B( 80-C ,127-H ) :   0.9668 B( 80-C ,128-H ) :   0.9665 B( 81-C ,129-H ) :   0.9690
B( 81-C ,130-H ) :   0.9705 B( 81-C ,131-H ) :   0.9667

-----------------------------------------------------------------------------
         ABSORPTION SPECTRUM VIA TRANSITION ELECTRIC DIPOLE MOMENTS
-----------------------------------------------------------------------------
State   Energy  Wavelength   fosc         T2         TX        TY        TZ
        (cm-1)    (nm)                  (au**2)     (au)      (au)      (au)
-----------------------------------------------------------------------------
   0   17928.4    557.8   3.131566043  57.50382   0.00452  -2.28974  -7.22917
   1   22439.9    445.6   0.505083902   7.41000  -0.56102   2.35635  -1.24213
   2   29661.5    337.1   0.011983509   0.13300   0.12625  -0.16122  -0.30178
   3   31584.1    316.6   0.009465712   0.09866   0.16835  -0.25972   0.05354
   4   33754.7    296.3   0.042835967   0.41778  -0.32253   0.49820  -0.25603
   5   34610.6    288.9   0.129471943   1.23152  -0.49867   0.98027  -0.14803
   6   35475.6    281.9   0.347135741   3.22140   1.03321  -1.18726   0.86272
   7   36143.6    276.7   0.656342175   5.97825  -1.56279   1.87446  -0.14939
   8   37503.6    266.6   0.044260569   0.38853  -0.19600   0.44683   0.38788
   9   38250.8    261.4   0.035355663   0.30429  -0.04532   0.39908   0.37812
  10   38713.8    258.3   0.047561327   0.40445   0.61068   0.04412  -0.17196
  11   39540.9    252.9   0.311707376   2.59523  -1.59294   0.23986   0.01553
  12   39968.8    250.2   0.261414941   2.15321  -1.45724   0.16853  -0.03546

Dispersion correction           -0.085260326
FINAL SINGLE POINT ENERGY     -5585.320636988473

DIPOLE MOMENT
-------------
                                X             Y             Z
Electronic contribution:    -18.82028      12.61030      -2.25710
Nuclear contribution   :     21.75199     -16.95429       2.80501
                        -----------------------------------------
Total Dipole Moment    :      2.93170      -4.34399       0.54790
                        -----------------------------------------
Magnitude (a.u.)       :      5.26928
Magnitude (Debye)      :     13.39345

Rotational constants in cm-1:     0.001468     0.000167     0.000158
Rotational constants in MHz :    44.001954     5.015752     4.732764

                             ****ORCA TERMINATED NORMALLY****
TOTAL RUN TIME: 0 days 0 hours 16 minutes 35 seconds 732 msec
