                         Program Version 4.2.0 -  RELEASE  -
|  1> # ORCA input file
|  2> # SCF done       -228.509370390618          0.000358822666
|  3> ! wb97x-d3 def2-SVP def2/J RIJCOSX Grid4 TightSCF
|  4> %maxcore 5000
|  5> %tddft
|  6>     Mode sTDDFT
|  7>     Ethresh 5.0
|  8>     maxcore 5000
|  9> end
| 10>
| 11> %pal
| 12>   nprocs 6
| 13>   end
| 14> * xyz 0 1
| 15>    C        6.00165         0.97105        -3.68326
| 16>    O        5.96750        -0.16309        -4.11888
| 17>    C        7.23543         1.77198        -3.51436
| 18>    C        8.53257         1.40434        -3.81087
| 19>    C        9.53367         2.33049        -3.56841
| 20>    C        9.22590         3.58515        -3.04347
| 21>    C        7.92189         3.95222        -2.74532
| 22>    C        6.91452         3.03038        -2.98482
| 23>    C        5.46541         3.09661        -2.78543
| 24>    C        4.80721         4.18460        -2.26978
| 25>    C        3.41969         4.30923        -2.04448
| 26>    N        2.31192         4.51539        -1.81875
| 27>    C        5.44632         5.37868        -1.87224
| 28>    N        5.89377         6.37917        -1.53050
| 29>    C        4.90026         1.83325        -3.22151
| 30>    F       10.21193         4.46249        -2.81947
| 31>    C        3.54991         1.55940        -3.18627
| 32>    F       10.80769         2.01841        -3.84082
| 33>    C      -11.10596       -12.00019       -10.28084
| 34>    O       -9.99469       -11.53287       -10.10479
| 35>    C      -11.48439       -12.96567       -11.33551
| 36>    C      -10.68954       -13.51690       -12.31976
| 37>    C      -11.28469       -14.40230       -13.20436
| 38>    C      -12.63856       -14.71553       -13.09185
| 39>    C      -13.43622       -14.16157       -12.10065
| 40>    C      -12.84881       -13.27553       -11.21200
| 41>    C      -13.39929       -12.52983       -10.07697
| 42>    C      -14.70009       -12.60550        -9.64650
| 43>    C      -15.24953       -11.90993        -8.54974
| 44>    N      -15.77765       -11.38420        -7.67493
| 45>    C      -15.68699       -13.41283       -10.25016
| 46>    N      -16.53731       -14.04444       -10.69274
| 47>    C      -12.32584       -11.73714        -9.51980
| 48>    F      -13.18849       -15.57214       -13.96092
| 49>    C      -12.43900       -10.86263        -8.45995
| 50>    F      -10.55219       -14.96116       -14.17665
| 51>    C      -11.48924       -10.04668        -7.84715
| 52>    S       -9.78231        -9.91193        -8.26488
| 53>    C       -9.57549        -8.75134        -7.02891
| 54>    C      -10.75909        -8.46645        -6.31866
| 55>    C      -11.82496        -9.19739        -6.77445
| 56>    C       -8.54266        -7.94499        -6.51008
| 57>    C       -9.04831        -7.14837        -5.47667
| 58>    C      -10.50739        -7.44613        -5.23095
| 59>    S       -6.87993        -7.65019        -6.82334
| 60>    C       -6.87054        -6.40369        -5.59755
| 61>    C       -8.10209        -6.26995        -4.97156
| 62>    C       -5.66008        -5.68590        -5.33098
| 63>    C       -5.58481        -4.48301        -4.62175
| 64>    C       -4.34843        -3.86403        -4.32582
| 65>    C       -3.12179        -4.34390        -4.79343
| 66>    C       -3.18207        -5.54666        -5.53552
| 67>    C       -4.42280        -6.19335        -5.78722
| 68>    N       -2.22750        -6.28104        -6.12645
| 69>    N       -2.87289        -7.27462        -6.67315
| 70>    N       -4.16537        -7.28863        -6.51229
| 71>    C       -1.89902        -3.62948        -4.61077
| 72>    S       -1.89685        -1.99810        -3.98944
| 73>    C       -0.19274        -1.92862        -4.19592
| 74>    C        0.34263        -3.10991        -4.72395
| 75>    C       -0.62840        -4.07264        -4.95044
| 76>    C        0.85421        -1.02110        -3.94736
| 77>    C        2.07430        -1.61930        -4.31343
| 78>    C        1.84050        -3.00254        -4.87671
| 79>    S        1.05525         0.55448        -3.33044
| 80>    C        2.81024         0.43421        -3.56047
| 81>    C        3.16355        -0.80656        -4.09998
| 82>    O       -4.35870        -2.69461        -3.59812
| 83>    C        2.27290        -2.99213        -6.35992
| 84>    C        1.94777        -4.26263        -7.13374
| 85>    C        2.58222        -4.08338        -4.07483
| 86>    C        2.26500        -4.03075        -2.58483
| 87>    C      -10.73721        -8.13541        -3.86744
| 88>    C      -10.33703        -7.30944        -2.65242
| 89>    C      -11.38409        -6.19483        -5.39276
| 90>    C      -11.25342        -5.56113        -6.77289
| 91>    C       -2.19262        -8.32417        -7.37633
| 92>    C       -1.90342        -9.49232        -6.43844
| 93>    O       -6.72333        -3.84438        -4.18580
| 94>    C       -7.40933        -3.10009        -5.18650
| 95>    C       -6.59539        -1.93116        -5.72506
| 96>    C       -4.24811        -2.85279        -2.18517
| 97>    C       -5.48604        -3.44348        -1.52751
| 98>    H        8.76282         0.43229        -4.21684
| 99>    H        7.74165         4.93449        -2.34153
|100>    H        2.92750         2.35850        -2.80215
|101>    H       -9.64310       -13.27046       -12.40267
|102>    H      -14.47692       -14.43736       -12.05907
|103>    H      -13.42325       -10.77089        -8.01707
|104>    H      -12.82786        -9.15042        -6.38817
|105>    H       -8.26781        -5.56073        -4.18224
|106>    H       -0.46729        -5.06282        -5.33320
|107>    H        4.18646        -1.06210        -4.30543
|108>    H        1.78118        -2.14650        -6.84743
|109>    H        3.34921        -2.81189        -6.38998
|110>    H        0.87697        -4.44600        -7.14527
|111>    H        2.28511        -4.15258        -8.16191
|112>    H        2.44953        -5.12611        -6.70599
|113>    H        2.30079        -5.06261        -4.46323
|114>    H        3.65500        -3.94853        -4.22319
|115>    H        1.19898        -4.16359        -2.41294
|116>    H        2.79778        -4.82197        -2.06305
|117>    H        2.56645        -3.07717        -2.15787
|118>    H      -11.79609        -8.39281        -3.79892
|119>    H      -10.16818        -9.06849        -3.86282
|120>    H      -10.89963        -6.38155        -2.59992
|121>    H      -10.54117        -7.87796        -1.74800
|122>    H       -9.27591        -7.07760        -2.67390
|123>    H      -12.42458        -6.47398        -5.21683
|124>    H      -11.09399        -5.46342        -4.63787
|125>    H      -11.56298        -6.25629        -7.54969
|126>    H      -11.87980        -4.67477        -6.83661
|127>    H      -10.22376        -5.26807        -6.96565
|128>    H       -2.84032        -8.64647        -8.19376
|129>    H       -1.26491        -7.90616        -7.77100
|130>    H       -2.83320        -9.88499        -6.03457
|131>    H       -1.39578       -10.28346        -6.98217
|132>    H       -1.26950        -9.16953        -5.61605
|133>    H       -7.70794        -3.76314        -6.01052
|134>    H       -8.30748        -2.73867        -4.67991
|135>    H       -6.22822        -1.32081        -4.90435
|136>    H       -5.73985        -2.28918        -6.29436
|137>    H       -7.21930        -1.32356        -6.37463
|138>    H       -3.37012        -3.47118        -1.95034
|139>    H       -4.07071        -1.83833        -1.82057
|140>    H       -6.36419        -2.85925        -1.78552
|141>    H       -5.35311        -3.43496        -0.44890
|142>    H       -5.64714        -4.46813        -1.85413
|143> *
|144>
|145>                          ****END OF INPUT****

CARTESIAN COORDINATES (ANGSTROEM)
---------------------------------
  C      6.001650    0.971050   -3.683260
  O      5.967500   -0.163090   -4.118880
  C      7.235430    1.771980   -3.514360
  C      8.532570    1.404340   -3.810870
  C      9.533670    2.330490   -3.568410
  C      9.225900    3.585150   -3.043470
  C      7.921890    3.952220   -2.745320
  C      6.914520    3.030380   -2.984820
  C      5.465410    3.096610   -2.785430
  C      4.807210    4.184600   -2.269780
  C      3.419690    4.309230   -2.044480
  N      2.311920    4.515390   -1.818750
  C      5.446320    5.378680   -1.872240
  N      5.893770    6.379170   -1.530500
  C      4.900260    1.833250   -3.221510
  F     10.211930    4.462490   -2.819470
  C      3.549910    1.559400   -3.186270
  F     10.807690    2.018410   -3.840820
  C    -11.105960  -12.000190  -10.280840
  O     -9.994690  -11.532870  -10.104790
  C    -11.484390  -12.965670  -11.335510
  C    -10.689540  -13.516900  -12.319760
  C    -11.284690  -14.402300  -13.204360
  C    -12.638560  -14.715530  -13.091850
  C    -13.436220  -14.161570  -12.100650
  C    -12.848810  -13.275530  -11.212000
  C    -13.399290  -12.529830  -10.076970
  C    -14.700090  -12.605500   -9.646500
  C    -15.249530  -11.909930   -8.549740
  N    -15.777650  -11.384200   -7.674930
  C    -15.686990  -13.412830  -10.250160
  N    -16.537310  -14.044440  -10.692740
  C    -12.325840  -11.737140   -9.519800
  F    -13.188490  -15.572140  -13.960920
  C    -12.439000  -10.862630   -8.459950
  F    -10.552190  -14.961160  -14.176650
  C    -11.489240  -10.046680   -7.847150
  S     -9.782310   -9.911930   -8.264880
  C     -9.575490   -8.751340   -7.028910
  C    -10.759090   -8.466450   -6.318660
  C    -11.824960   -9.197390   -6.774450
  C     -8.542660   -7.944990   -6.510080
  C     -9.048310   -7.148370   -5.476670
  C    -10.507390   -7.446130   -5.230950
  S     -6.879930   -7.650190   -6.823340
  C     -6.870540   -6.403690   -5.597550
  C     -8.102090   -6.269950   -4.971560
  C     -5.660080   -5.685900   -5.330980
  C     -5.584810   -4.483010   -4.621750
  C     -4.348430   -3.864030   -4.325820
  C     -3.121790   -4.343900   -4.793430
  C     -3.182070   -5.546660   -5.535520
  C     -4.422800   -6.193350   -5.787220
  N     -2.227500   -6.281040   -6.126450
  N     -2.872890   -7.274620   -6.673150
  N     -4.165370   -7.288630   -6.512290
  C     -1.899020   -3.629480   -4.610770
  S     -1.896850   -1.998100   -3.989440
  C     -0.192740   -1.928620   -4.195920
  C      0.342630   -3.109910   -4.723950
  C     -0.628400   -4.072640   -4.950440
  C      0.854210   -1.021100   -3.947360
  C      2.074300   -1.619300   -4.313430
  C      1.840500   -3.002540   -4.876710
  S      1.055250    0.554480   -3.330440
  C      2.810240    0.434210   -3.560470
  C      3.163550   -0.806560   -4.099980
  O     -4.358700   -2.694610   -3.598120
  C      2.272900   -2.992130   -6.359920
  C      1.947770   -4.262630   -7.133740
  C      2.582220   -4.083380   -4.074830
  C      2.265000   -4.030750   -2.584830
  C    -10.737210   -8.135410   -3.867440
  C    -10.337030   -7.309440   -2.652420
  C    -11.384090   -6.194830   -5.392760
  C    -11.253420   -5.561130   -6.772890
  C     -2.192620   -8.324170   -7.376330
  C     -1.903420   -9.492320   -6.438440
  O     -6.723330   -3.844380   -4.185800
  C     -7.409330   -3.100090   -5.186500
  C     -6.595390   -1.931160   -5.725060
  C     -4.248110   -2.852790   -2.185170
  C     -5.486040   -3.443480   -1.527510
  H      8.762820    0.432290   -4.216840
  H      7.741650    4.934490   -2.341530
  H      2.927500    2.358500   -2.802150
  H     -9.643100  -13.270460  -12.402670
  H    -14.476920  -14.437360  -12.059070
  H    -13.423250  -10.770890   -8.017070
  H    -12.827860   -9.150420   -6.388170
  H     -8.267810   -5.560730   -4.182240
  H     -0.467290   -5.062820   -5.333200
  H      4.186460   -1.062100   -4.305430
  H      1.781180   -2.146500   -6.847430
  H      3.349210   -2.811890   -6.389980
  H      0.876970   -4.446000   -7.145270
  H      2.285110   -4.152580   -8.161910
  H      2.449530   -5.126110   -6.705990
  H      2.300790   -5.062610   -4.463230
  H      3.655000   -3.948530   -4.223190
  H      1.198980   -4.163590   -2.412940
  H      2.797780   -4.821970   -2.063050
  H      2.566450   -3.077170   -2.157870
  H    -11.796090   -8.392810   -3.798920
  H    -10.168180   -9.068490   -3.862820
  H    -10.899630   -6.381550   -2.599920
  H    -10.541170   -7.877960   -1.748000
  H     -9.275910   -7.077600   -2.673900
  H    -12.424580   -6.473980   -5.216830
  H    -11.093990   -5.463420   -4.637870
  H    -11.562980   -6.256290   -7.549690
  H    -11.879800   -4.674770   -6.836610
  H    -10.223760   -5.268070   -6.965650
  H     -2.840320   -8.646470   -8.193760
  H     -1.264910   -7.906160   -7.771000
  H     -2.833200   -9.884990   -6.034570
  H     -1.395780  -10.283460   -6.982170
  H     -1.269500   -9.169530   -5.616050
  H     -7.707940   -3.763140   -6.010520
  H     -8.307480   -2.738670   -4.679910
  H     -6.228220   -1.320810   -4.904350
  H     -5.739850   -2.289180   -6.294360
  H     -7.219300   -1.323560   -6.374630
  H     -3.370120   -3.471180   -1.950340
  H     -4.070710   -1.838330   -1.820570
  H     -6.364190   -2.859250   -1.785520
  H     -5.353110   -3.434960   -0.448900
  H     -5.647140   -4.468130   -1.854130

 Total Charge           Charge          ....    0
 Multiplicity           Mult            ....    1
 Number of Electrons    NEL             ....  610
 Basis Dimension        Dim             .... 1403

ORBITAL ENERGIES
----------------

  NO   OCC          E(Eh)            E(eV)
   0   2.0000     -88.998257     -2421.7657
   1   2.0000     -88.994502     -2421.6635
   2   2.0000     -88.993734     -2421.6426
   3   2.0000     -88.993404     -2421.6336
   4   2.0000     -24.831299      -675.6940
   5   2.0000     -24.829941      -675.6571
   6   2.0000     -24.829420      -675.6429
   7   2.0000     -24.828040      -675.6053
   8   2.0000     -19.288187      -524.8582
   9   2.0000     -19.283304      -524.7254
  10   2.0000     -19.256102      -523.9852
  11   2.0000     -19.253794      -523.9224
  12   2.0000     -14.588911      -396.9845
  13   2.0000     -14.493939      -394.4001
  14   2.0000     -14.492506      -394.3611
  15   2.0000     -14.450485      -393.2177
  16   2.0000     -14.448261      -393.1572
  17   2.0000     -14.445941      -393.0941
  18   2.0000     -14.444270      -393.0486
  19   2.0000     -10.416587      -283.4497
  20   2.0000     -10.415942      -283.4322
  21   2.0000     -10.415245      -283.4132
  22   2.0000     -10.414429      -283.3910
  23   2.0000     -10.403568      -283.0955
  24   2.0000     -10.403408      -283.0911
  25   2.0000     -10.384583      -282.5789
  26   2.0000     -10.382915      -282.5335
  27   2.0000     -10.378076      -282.4018
  28   2.0000     -10.376694      -282.3642
  29   2.0000     -10.372949      -282.2623
  30   2.0000     -10.371519      -282.2234
  31   2.0000     -10.367198      -282.1058
  32   2.0000     -10.361755      -281.9577
  33   2.0000     -10.360874      -281.9337
  34   2.0000     -10.360642      -281.9274
  35   2.0000     -10.356730      -281.8210
  36   2.0000     -10.356645      -281.8186
  37   2.0000     -10.355811      -281.7960
  38   2.0000     -10.353377      -281.7297
  39   2.0000     -10.352407      -281.7033
  40   2.0000     -10.352070      -281.6942
  41   2.0000     -10.351993      -281.6920
  42   2.0000     -10.350622      -281.6547
  43   2.0000     -10.349706      -281.6298
  44   2.0000     -10.348396      -281.5942
  45   2.0000     -10.348372      -281.5935
  46   2.0000     -10.347724      -281.5759
  47   2.0000     -10.347599      -281.5725
  48   2.0000     -10.346220      -281.5350
  49   2.0000     -10.345886      -281.5259
  50   2.0000     -10.344441      -281.4865
  51   2.0000     -10.344056      -281.4761
  52   2.0000     -10.341007      -281.3931
  53   2.0000     -10.340062      -281.3674
  54   2.0000     -10.339829      -281.3610
  55   2.0000     -10.339059      -281.3401
  56   2.0000     -10.338006      -281.3115
  57   2.0000     -10.337328      -281.2930
  58   2.0000     -10.333521      -281.1894
  59   2.0000     -10.332986      -281.1748
  60   2.0000     -10.332447      -281.1602
  61   2.0000     -10.331985      -281.1476
  62   2.0000     -10.330961      -281.1198
  63   2.0000     -10.326662      -281.0028
  64   2.0000     -10.324521      -280.9445
  65   2.0000     -10.322852      -280.8991
  66   2.0000     -10.320661      -280.8395
  67   2.0000     -10.320312      -280.8300
  68   2.0000     -10.317272      -280.7473
  69   2.0000     -10.317051      -280.7412
  70   2.0000     -10.316986      -280.7395
  71   2.0000     -10.315484      -280.6986
  72   2.0000     -10.314470      -280.6710
  73   2.0000     -10.309280      -280.5298
  74   2.0000     -10.308738      -280.5150
  75   2.0000     -10.307052      -280.4691
  76   2.0000     -10.306814      -280.4627
  77   2.0000     -10.293952      -280.1127
  78   2.0000     -10.293856      -280.1101
  79   2.0000     -10.293323      -280.0956
  80   2.0000     -10.292091      -280.0620
  81   2.0000     -10.290402      -280.0161
  82   2.0000     -10.287720      -279.9431
  83   2.0000      -8.111804      -220.7334
  84   2.0000      -8.106028      -220.5762
  85   2.0000      -8.105894      -220.5726
  86   2.0000      -8.105712      -220.5676
  87   2.0000      -6.071172      -165.2050
  88   2.0000      -6.067130      -165.0950
  89   2.0000      -6.065690      -165.0558
  90   2.0000      -6.065489      -165.0503
  91   2.0000      -6.065396      -165.0478
  92   2.0000      -6.064248      -165.0166
  93   2.0000      -6.061098      -164.9309
  94   2.0000      -6.061076      -164.9303
  95   2.0000      -6.060933      -164.9264
  96   2.0000      -6.058399      -164.8574
  97   2.0000      -6.058316      -164.8552
  98   2.0000      -6.058114      -164.8497
  99   2.0000      -1.360516       -37.0215
 100   2.0000      -1.359088       -36.9827
 101   2.0000      -1.345466       -36.6120
 102   2.0000      -1.344042       -36.5732
 103   2.0000      -1.272990       -34.6398
 104   2.0000      -1.203440       -32.7473
 105   2.0000      -1.179580       -32.0980
 106   2.0000      -1.174094       -31.9487
 107   2.0000      -1.170805       -31.8592
 108   2.0000      -1.060973       -28.8706
 109   2.0000      -1.060538       -28.8587
 110   2.0000      -1.057336       -28.7716
 111   2.0000      -1.055822       -28.7304
 112   2.0000      -1.046392       -28.4738
 113   2.0000      -1.039360       -28.2824
 114   2.0000      -1.037946       -28.2440
 115   2.0000      -1.037554       -28.2333
 116   2.0000      -1.029260       -28.0076
 117   2.0000      -1.027403       -27.9571
 118   2.0000      -1.021007       -27.7830
 119   2.0000      -1.017248       -27.6807
 120   2.0000      -0.993887       -27.0450
 121   2.0000      -0.992619       -27.0105
 122   2.0000      -0.980264       -26.6743
 123   2.0000      -0.977049       -26.5868
 124   2.0000      -0.966932       -26.3116
 125   2.0000      -0.942108       -25.6361
 126   2.0000      -0.939917       -25.5764
 127   2.0000      -0.936305       -25.4781
 128   2.0000      -0.930693       -25.3254
 129   2.0000      -0.924534       -25.1579
 130   2.0000      -0.910251       -24.7692
 131   2.0000      -0.908677       -24.7264
 132   2.0000      -0.904693       -24.6180
 133   2.0000      -0.897924       -24.4337
 134   2.0000      -0.893550       -24.3147
 135   2.0000      -0.884153       -24.0590
 136   2.0000      -0.883316       -24.0362
 137   2.0000      -0.881251       -23.9800
 138   2.0000      -0.880811       -23.9681
 139   2.0000      -0.878945       -23.9173
 140   2.0000      -0.875243       -23.8166
 141   2.0000      -0.873765       -23.7763
 142   2.0000      -0.868471       -23.6323
 143   2.0000      -0.853864       -23.2348
 144   2.0000      -0.844562       -22.9817
 145   2.0000      -0.829239       -22.5647
 146   2.0000      -0.809572       -22.0296
 147   2.0000      -0.808080       -21.9890
 148   2.0000      -0.807671       -21.9779
 149   2.0000      -0.805066       -21.9069
 150   2.0000      -0.802812       -21.8456
 151   2.0000      -0.796089       -21.6627
 152   2.0000      -0.785199       -21.3663
 153   2.0000      -0.778948       -21.1962
 154   2.0000      -0.765285       -20.8245
 155   2.0000      -0.763491       -20.7757
 156   2.0000      -0.745016       -20.2729
 157   2.0000      -0.743295       -20.2261
 158   2.0000      -0.741110       -20.1666
 159   2.0000      -0.739532       -20.1237
 160   2.0000      -0.738292       -20.0899
 161   2.0000      -0.735991       -20.0273
 162   2.0000      -0.726491       -19.7688
 163   2.0000      -0.726207       -19.7611
 164   2.0000      -0.722851       -19.6698
 165   2.0000      -0.718473       -19.5506
 166   2.0000      -0.712902       -19.3991
 167   2.0000      -0.701838       -19.0980
 168   2.0000      -0.696158       -18.9434
 169   2.0000      -0.690577       -18.7916
 170   2.0000      -0.683110       -18.5884
 171   2.0000      -0.679721       -18.4962
 172   2.0000      -0.676430       -18.4066
 173   2.0000      -0.674842       -18.3634
 174   2.0000      -0.673059       -18.3149
 175   2.0000      -0.670876       -18.2555
 176   2.0000      -0.669211       -18.2102
 177   2.0000      -0.664281       -18.0760
 178   2.0000      -0.659074       -17.9343
 179   2.0000      -0.656300       -17.8588
 180   2.0000      -0.652897       -17.7662
 181   2.0000      -0.647827       -17.6283
 182   2.0000      -0.645331       -17.5603
 183   2.0000      -0.641496       -17.4560
 184   2.0000      -0.633190       -17.2300
 185   2.0000      -0.630696       -17.1621
 186   2.0000      -0.624886       -17.0040
 187   2.0000      -0.624587       -16.9959
 188   2.0000      -0.621207       -16.9039
 189   2.0000      -0.621102       -16.9010
 190   2.0000      -0.619681       -16.8624
 191   2.0000      -0.615772       -16.7560
 192   2.0000      -0.608501       -16.5582
 193   2.0000      -0.602482       -16.3944
 194   2.0000      -0.597599       -16.2615
 195   2.0000      -0.594702       -16.1827
 196   2.0000      -0.593023       -16.1370
 197   2.0000      -0.590942       -16.0804
 198   2.0000      -0.587387       -15.9836
 199   2.0000      -0.584121       -15.8947
 200   2.0000      -0.583262       -15.8714
 201   2.0000      -0.582160       -15.8414
 202   2.0000      -0.580135       -15.7863
 203   2.0000      -0.579512       -15.7693
 204   2.0000      -0.578721       -15.7478
 205   2.0000      -0.578276       -15.7357
 206   2.0000      -0.574731       -15.6392
 207   2.0000      -0.573543       -15.6069
 208   2.0000      -0.573401       -15.6030
 209   2.0000      -0.570970       -15.5369
 210   2.0000      -0.568720       -15.4756
 211   2.0000      -0.568266       -15.4633
 212   2.0000      -0.563593       -15.3362
 213   2.0000      -0.562075       -15.2948
 214   2.0000      -0.560624       -15.2553
 215   2.0000      -0.558932       -15.2093
 216   2.0000      -0.555785       -15.1237
 217   2.0000      -0.553553       -15.0629
 218   2.0000      -0.548338       -14.9210
 219   2.0000      -0.545267       -14.8375
 220   2.0000      -0.543954       -14.8017
 221   2.0000      -0.541156       -14.7256
 222   2.0000      -0.535988       -14.5850
 223   2.0000      -0.533935       -14.5291
 224   2.0000      -0.531939       -14.4748
 225   2.0000      -0.530377       -14.4323
 226   2.0000      -0.529086       -14.3972
 227   2.0000      -0.526886       -14.3373
 228   2.0000      -0.525650       -14.3037
 229   2.0000      -0.523320       -14.2403
 230   2.0000      -0.520726       -14.1697
 231   2.0000      -0.518935       -14.1209
 232   2.0000      -0.518764       -14.1163
 233   2.0000      -0.517451       -14.0806
 234   2.0000      -0.511653       -13.9228
 235   2.0000      -0.509665       -13.8687
 236   2.0000      -0.508723       -13.8431
 237   2.0000      -0.508325       -13.8322
 238   2.0000      -0.505304       -13.7500
 239   2.0000      -0.504130       -13.7181
 240   2.0000      -0.502388       -13.6707
 241   2.0000      -0.500544       -13.6205
 242   2.0000      -0.496140       -13.5007
 243   2.0000      -0.493572       -13.4308
 244   2.0000      -0.491981       -13.3875
 245   2.0000      -0.489989       -13.3333
 246   2.0000      -0.487756       -13.2725
 247   2.0000      -0.487017       -13.2524
 248   2.0000      -0.486966       -13.2510
 249   2.0000      -0.486247       -13.2314
 250   2.0000      -0.485580       -13.2133
 251   2.0000      -0.485095       -13.2001
 252   2.0000      -0.484799       -13.1921
 253   2.0000      -0.482939       -13.1414
 254   2.0000      -0.480223       -13.0675
 255   2.0000      -0.477312       -12.9883
 256   2.0000      -0.476797       -12.9743
 257   2.0000      -0.475441       -12.9374
 258   2.0000      -0.474939       -12.9237
 259   2.0000      -0.473714       -12.8904
 260   2.0000      -0.472079       -12.8459
 261   2.0000      -0.469737       -12.7822
 262   2.0000      -0.467136       -12.7114
 263   2.0000      -0.462807       -12.5936
 264   2.0000      -0.462137       -12.5754
 265   2.0000      -0.460052       -12.5187
 266   2.0000      -0.458393       -12.4735
 267   2.0000      -0.457499       -12.4492
 268   2.0000      -0.454991       -12.3809
 269   2.0000      -0.453407       -12.3378
 270   2.0000      -0.452816       -12.3218
 271   2.0000      -0.450038       -12.2462
 272   2.0000      -0.449025       -12.2186
 273   2.0000      -0.444090       -12.0843
 274   2.0000      -0.443614       -12.0714
 275   2.0000      -0.440715       -11.9925
 276   2.0000      -0.438623       -11.9355
 277   2.0000      -0.437725       -11.9111
 278   2.0000      -0.436351       -11.8737
 279   2.0000      -0.434933       -11.8351
 280   2.0000      -0.434325       -11.8186
 281   2.0000      -0.431393       -11.7388
 282   2.0000      -0.426892       -11.6163
 283   2.0000      -0.425840       -11.5877
 284   2.0000      -0.414085       -11.2678
 285   2.0000      -0.412896       -11.2355
 286   2.0000      -0.410323       -11.1655
 287   2.0000      -0.396720       -10.7953
 288   2.0000      -0.394809       -10.7433
 289   2.0000      -0.384076       -10.4512
 290   2.0000      -0.380817       -10.3626
 291   2.0000      -0.374559       -10.1923
 292   2.0000      -0.372020       -10.1232
 293   2.0000      -0.368036       -10.0148
 294   2.0000      -0.366902        -9.9839
 295   2.0000      -0.365596        -9.9484
 296   2.0000      -0.363461        -9.8903
 297   2.0000      -0.358577        -9.7574
 298   2.0000      -0.355605        -9.6765
 299   2.0000      -0.352539        -9.5931
 300   2.0000      -0.345166        -9.3925
 301   2.0000      -0.340526        -9.2662
 302   2.0000      -0.324188        -8.8216
 303   2.0000      -0.287748        -7.8300
 304   2.0000      -0.263671        -7.1749
 305   0.0000      -0.078715        -2.1419
 306   0.0000      -0.065988        -1.7956
 307   0.0000      -0.042775        -1.1640
 308   0.0000      -0.036545        -0.9944
 309   0.0000      -0.024182        -0.6580

MULLIKEN ATOMIC CHARGES
-----------------------
   0 C :    0.223139
   1 O :   -0.192491
   2 C :   -0.053768
   3 C :   -0.095952
   4 C :    0.240225
   5 C :    0.242377
   6 C :   -0.082504
   7 C :    0.023015
   8 C :    0.290963
   9 C :   -0.392972
  10 C :   -0.120427
  11 N :    0.097317
  12 C :   -0.134947
  13 N :    0.106351
  14 C :   -0.150782
  15 F :   -0.181548
  16 C :    0.072315
  17 F :   -0.186611
  18 C :    0.228977
  19 O :   -0.204182
  20 C :   -0.057882
  21 C :   -0.094343
  22 C :    0.240654
  23 C :    0.242102
  24 C :   -0.087431
  25 C :    0.024846
  26 C :    0.291960
  27 C :   -0.383874
  28 C :   -0.127714
  29 N :    0.093755
  30 C :   -0.134932
  31 N :    0.106623
  32 C :   -0.153752
  33 F :   -0.181480
  34 C :    0.001212
  35 F :   -0.186223
  36 C :   -0.092863
  37 S :    0.216630
  38 C :   -0.042264
  39 C :    0.020001
  40 C :   -0.051695
  41 C :   -0.075681
  42 C :    0.013787
  43 C :   -0.177626
  44 S :    0.194592
  45 C :   -0.166365
  46 C :   -0.061655
  47 C :    0.130797
  48 C :    0.053596
  49 C :    0.057478
  50 C :    0.115115
  51 C :   -0.015600
  52 C :   -0.044231
  53 N :   -0.093576
  54 N :   -0.078733
  55 N :   -0.103985
  56 C :   -0.164569
  57 S :    0.177684
  58 C :   -0.078232
  59 C :    0.028594
  60 C :   -0.051685
  61 C :   -0.048665
  62 C :   -0.021764
  63 C :   -0.188614
  64 S :    0.174743
  65 C :   -0.159159
  66 C :    0.008839
  67 O :   -0.382366
  68 C :    0.033374
  69 C :   -0.019350
  70 C :    0.016182
  71 C :   -0.020413
  72 C :    0.037067
  73 C :   -0.018524
  74 C :    0.015910
  75 C :   -0.020956
  76 C :    0.104896
  77 C :   -0.065207
  78 O :   -0.375275
  79 C :    0.127634
  80 C :   -0.063113
  81 C :    0.138551
  82 C :   -0.041931
  83 H :    0.038239
  84 H :    0.043122
  85 H :    0.019185
  86 H :    0.039108
  87 H :    0.044860
  88 H :    0.028144
  89 H :    0.027212
  90 H :    0.027200
  91 H :    0.016336
  92 H :    0.037107
  93 H :    0.032182
  94 H :    0.032687
  95 H :    0.037272
  96 H :    0.038745
  97 H :    0.025693
  98 H :    0.031150
  99 H :    0.034687
 100 H :    0.037309
 101 H :    0.035774
 102 H :    0.040858
 103 H :    0.026386
 104 H :    0.032590
 105 H :    0.027673
 106 H :    0.040407
 107 H :    0.035844
 108 H :    0.029405
 109 H :    0.030812
 110 H :    0.041098
 111 H :    0.036673
 112 H :    0.036459
 113 H :    0.067098
 114 H :    0.062268
 115 H :    0.057382
 116 H :    0.055315
 117 H :    0.050884
 118 H :    0.044744
 119 H :    0.040993
 120 H :    0.054969
 121 H :    0.045749
 122 H :    0.043264
 123 H :    0.029902
 124 H :    0.047879
 125 H :    0.049037
 126 H :    0.041662
 127 H :    0.041248
Sum of atomic charges:   -0.0000000

LOEWDIN ATOMIC CHARGES
----------------------
   0 C :    0.096107
   1 O :   -0.155343
   2 C :   -0.049301
   3 C :   -0.009029
   4 C :    0.073433
   5 C :    0.075984
   6 C :   -0.018099
   7 C :   -0.019982
   8 C :    0.081550
   9 C :   -0.154243
  10 C :   -0.018245
  11 N :   -0.057199
  12 C :   -0.014208
  13 N :   -0.058701
  14 C :   -0.129442
  15 F :   -0.049434
  16 C :    0.056102
  17 F :   -0.051872
  18 C :    0.090814
  19 O :   -0.172689
  20 C :   -0.049143
  21 C :   -0.008620
  22 C :    0.073171
  23 C :    0.075961
  24 C :   -0.018154
  25 C :   -0.018853
  26 C :    0.081954
  27 C :   -0.154836
  28 C :   -0.014694
  29 N :   -0.061583
  30 C :   -0.015074
  31 N :   -0.058181
  32 C :   -0.139274
  33 F :   -0.049099
  34 C :    0.064126
  35 F :   -0.051805
  36 C :   -0.195614
  37 S :    0.504206
  38 C :   -0.163017
  39 C :   -0.049766
  40 C :   -0.004915
  41 C :   -0.212074
  42 C :   -0.024290
  43 C :   -0.039085
  44 S :    0.476380
  45 C :   -0.153215
  46 C :   -0.056440
  47 C :   -0.066640
  48 C :    0.037487
  49 C :    0.030755
  50 C :   -0.061096
  51 C :   -0.044548
  52 C :   -0.053623
  53 N :   -0.090332
  54 N :    0.159748
  55 N :   -0.102872
  56 C :   -0.153527
  57 S :    0.477349
  58 C :   -0.214858
  59 C :   -0.021614
  60 C :   -0.052432
  61 C :   -0.156354
  62 C :   -0.047555
  63 C :   -0.038712
  64 S :    0.455392
  65 C :   -0.188952
  66 C :    0.003606
  67 O :   -0.133096
  68 C :   -0.011522
  69 C :   -0.061838
  70 C :   -0.016381
  71 C :   -0.058244
  72 C :   -0.011945
  73 C :   -0.061137
  74 C :   -0.017192
  75 C :   -0.058437
  76 C :    0.035657
  77 C :   -0.058652
  78 O :   -0.124032
  79 C :    0.081759
  80 C :   -0.075088
  81 C :    0.074769
  82 C :   -0.073570
  83 H :    0.053928
  84 H :    0.053398
  85 H :    0.043615
  86 H :    0.054460
  87 H :    0.053788
  88 H :    0.051895
  89 H :    0.041512
  90 H :    0.033829
  91 H :    0.030042
  92 H :    0.037122
  93 H :    0.030122
  94 H :    0.026704
  95 H :    0.026917
  96 H :    0.031511
  97 H :    0.022515
  98 H :    0.023727
  99 H :    0.027942
 100 H :    0.026390
 101 H :    0.028507
 102 H :    0.027134
 103 H :    0.024511
 104 H :    0.030265
 105 H :    0.023069
 106 H :    0.032414
 107 H :    0.026166
 108 H :    0.026008
 109 H :    0.023589
 110 H :    0.027575
 111 H :    0.028593
 112 H :    0.025115
 113 H :    0.042286
 114 H :    0.040100
 115 H :    0.035563
 116 H :    0.037442
 117 H :    0.033252
 118 H :    0.013116
 119 H :    0.024476
 120 H :    0.032617
 121 H :    0.029332
 122 H :    0.034816
 123 H :    0.010503
 124 H :    0.024578
 125 H :    0.031127
 126 H :    0.033906
 127 H :    0.027984

  Mayer bond orders larger than 0.100000
B(  0-C ,  1-O ) :   2.1366 B(  0-C ,  2-C ) :   0.9671 B(  0-C , 14-C ) :   0.9647
B(  2-C ,  3-C ) :   1.3421 B(  2-C ,  7-C ) :   1.3489 B(  3-C ,  4-C ) :   1.3284
B(  3-C , 83-H ) :   1.0150 B(  4-C ,  5-C ) :   1.2958 B(  4-C , 17-F ) :   1.0973
B(  5-C ,  6-C ) :   1.3496 B(  5-C , 15-F ) :   1.1132 B(  6-C ,  7-C ) :   1.3364
B(  6-C , 84-H ) :   0.9874 B(  7-C ,  8-C ) :   1.0066 B(  8-C ,  9-C ) :   1.6180
B(  8-C , 14-C ) :   1.1164 B(  9-C , 10-C ) :   1.1310 B(  9-C , 12-C ) :   1.1360
B( 10-C , 11-N ) :   2.9505 B( 12-C , 13-N ) :   2.9709 B( 14-C , 16-C ) :   1.5523
B( 16-C , 65-C ) :   1.3006 B( 16-C , 85-H ) :   0.9050 B( 18-C , 19-O ) :   2.1234
B( 18-C , 20-C ) :   0.9660 B( 18-C , 32-C ) :   0.9960 B( 20-C , 21-C ) :   1.3471
B( 20-C , 25-C ) :   1.3445 B( 21-C , 22-C ) :   1.3252 B( 21-C , 86-H ) :   1.0150
B( 22-C , 23-C ) :   1.2985 B( 22-C , 35-F ) :   1.0975 B( 23-C , 24-C ) :   1.3466
B( 23-C , 33-F ) :   1.1128 B( 24-C , 25-C ) :   1.3403 B( 24-C , 87-H ) :   0.9875
B( 25-C , 26-C ) :   1.0109 B( 26-C , 27-C ) :   1.6213 B( 26-C , 32-C ) :   1.1168
B( 27-C , 28-C ) :   1.1367 B( 27-C , 30-C ) :   1.1323 B( 28-C , 29-N ) :   2.9537
B( 30-C , 31-N ) :   2.9726 B( 32-C , 34-C ) :   1.4673 B( 34-C , 36-C ) :   1.3407
B( 34-C , 88-H ) :   0.9395 B( 36-C , 37-S ) :   1.0596 B( 36-C , 40-C ) :   1.2959
B( 37-S , 38-C ) :   1.1107 B( 38-C , 39-C ) :   1.4136 B( 38-C , 41-C ) :   1.2304
B( 39-C , 40-C ) :   1.4200 B( 39-C , 43-C ) :   0.9217 B( 40-C , 89-H ) :   1.0163
B( 41-C , 42-C ) :   1.4972 B( 41-C , 44-S ) :   1.0649 B( 42-C , 43-C ) :   0.9224
B( 42-C , 46-C ) :   1.3255 B( 43-C , 72-C ) :   1.0174 B( 43-C , 74-C ) :   1.0291
B( 44-S , 45-C ) :   1.1454 B( 45-C , 46-C ) :   1.4485 B( 45-C , 47-C ) :   1.1042
B( 46-C , 90-H ) :   0.9995 B( 47-C , 48-C ) :   1.4323 B( 47-C , 50-C ) :   0.1064
B( 47-C , 52-C ) :   1.1680 B( 48-C , 49-C ) :   1.2279 B( 48-C , 78-O ) :   1.1196
B( 49-C , 50-C ) :   1.4290 B( 49-C , 67-O ) :   1.1183 B( 50-C , 51-C ) :   1.1796
B( 50-C , 56-C ) :   1.1267 B( 51-C , 52-C ) :   1.2388 B( 51-C , 53-N ) :   1.4625
B( 52-C , 55-N ) :   1.4519 B( 53-N , 54-N ) :   1.2327 B( 53-N , 55-N ) :   0.1602
B( 54-N , 55-N ) :   1.2446 B( 54-N , 76-C ) :   0.9094 B( 56-C , 57-S ) :   1.1250
B( 56-C , 60-C ) :   1.4735 B( 57-S , 58-C ) :   1.0516 B( 58-C , 59-C ) :   1.4985
B( 58-C , 61-C ) :   1.2286 B( 59-C , 60-C ) :   1.3098 B( 59-C , 63-C ) :   0.9271
B( 60-C , 91-H ) :   0.9890 B( 61-C , 62-C ) :   1.4338 B( 61-C , 64-S ) :   1.1468
B( 62-C , 63-C ) :   0.9271 B( 62-C , 66-C ) :   1.3911 B( 63-C , 68-C ) :   1.0171
B( 63-C , 70-C ) :   1.0273 B( 64-S , 65-C ) :   1.0699 B( 65-C , 66-C ) :   1.3473
B( 66-C , 92-H ) :   0.9822 B( 67-O , 81-C ) :   0.8815 B( 68-C , 69-C ) :   1.0992
B( 68-C , 93-H ) :   0.9474 B( 68-C , 94-H ) :   0.9454 B( 69-C , 95-H ) :   0.9655
B( 69-C , 96-H ) :   0.9672 B( 69-C , 97-H ) :   0.9672 B( 70-C , 71-C ) :   1.0886
B( 70-C , 98-H ) :   0.9475 B( 70-C , 99-H ) :   0.9493 B( 71-C ,100-H ) :   0.9694
B( 71-C ,101-H ) :   0.9704 B( 71-C ,102-H ) :   0.9673 B( 72-C , 73-C ) :   1.1001
B( 72-C ,103-H ) :   0.9453 B( 72-C ,104-H ) :   0.9469 B( 73-C ,105-H ) :   0.9674
B( 73-C ,106-H ) :   0.9670 B( 73-C ,107-H ) :   0.9663 B( 74-C , 75-C ) :   1.0880
B( 74-C ,108-H ) :   0.9495 B( 74-C ,109-H ) :   0.9471 B( 75-C ,110-H ) :   0.9668
B( 75-C ,111-H ) :   0.9704 B( 75-C ,112-H ) :   0.9687 B( 76-C , 77-C ) :   1.0982
B( 76-C ,113-H ) :   0.9495 B( 76-C ,114-H ) :   0.9495 B( 77-C ,115-H ) :   0.9705
B( 77-C ,116-H ) :   0.9728 B( 77-C ,117-H ) :   0.9699 B( 78-O , 79-C ) :   0.8983
B( 79-C , 80-C ) :   1.1022 B( 79-C ,118-H ) :   0.9512 B( 79-C ,119-H ) :   0.9629
B( 80-C ,120-H ) :   0.9627 B( 80-C ,121-H ) :   0.9657 B( 80-C ,122-H ) :   0.9635
B( 81-C , 82-C ) :   1.1155 B( 81-C ,123-H ) :   0.9479 B( 81-C ,124-H ) :   0.9604
B( 82-C ,125-H ) :   0.9635 B( 82-C ,126-H ) :   0.9619 B( 82-C ,127-H ) :   0.9631

-----------------------------------------------------------------------------
         ABSORPTION SPECTRUM VIA TRANSITION ELECTRIC DIPOLE MOMENTS
-----------------------------------------------------------------------------
State   Energy  Wavelength   fosc         T2         TX        TY        TZ
        (cm-1)    (nm)                  (au**2)     (au)      (au)      (au)
-----------------------------------------------------------------------------
   0   17388.7    575.1   4.013718172  75.98975  -6.40177  -5.37825  -2.46608
   1   23006.7    434.7   0.056536581   0.80900   0.06335   0.34982  -0.82620
   2   28110.0    355.7   0.005698609   0.06674  -0.03340  -0.24794   0.06443
   3   28714.4    348.3   0.059659871   0.68400   0.43511  -0.48999  -0.50457
   4   30671.7    326.0   0.159627205   1.71334   0.27780   1.05034   0.73004
   5   31267.4    319.8   0.005422792   0.05710  -0.20949   0.00834   0.11463
   6   34022.3    293.9   0.016661040   0.16122   0.28729   0.11598   0.25541
   7   35480.8    281.8   0.623736611   5.78739  -1.99819   0.72095   1.12910
   8   36236.6    276.0   0.058809380   0.53429  -0.69831   0.21278  -0.03716
   9   37642.3    265.7   0.082045754   0.71756   0.01797   0.53960   0.65274
  10   38049.5    262.8   0.038304328   0.33142  -0.10892   0.35094  -0.44317
  11   38198.2    261.8   0.018537307   0.15976  -0.25210   0.28895   0.11278
  12   38547.4    259.4   0.039226090   0.33501  -0.26365  -0.36138  -0.36729
  13   39047.0    256.1   0.007856555   0.06624   0.03221  -0.22541   0.11996
  14   39560.9    252.8   0.415603626   3.45851   1.63346  -0.65142  -0.60496
  15   40224.4    248.6   1.001269244   8.19478  -2.25343   1.21228   1.28344

Dispersion correction           -0.082143906
FINAL SINGLE POINT ENERGY     -5137.982050844990

DIPOLE MOMENT
-------------
                                X             Y             Z
Electronic contribution:     30.42233      -1.40349     -45.46234
Nuclear contribution   :    -29.30437      -0.41829      45.54285
                        -----------------------------------------
Total Dipole Moment    :      1.11795      -1.82179       0.08051
                        -----------------------------------------
Magnitude (a.u.)       :      2.13897
Magnitude (Debye)      :      5.43684

Rotational constants in cm-1:     0.001912     0.000157     0.000149
Rotational constants in MHz :    57.311893     4.716477     4.455524

                             ****ORCA TERMINATED NORMALLY****
TOTAL RUN TIME: 0 days 0 hours 15 minutes 36 seconds 82 msec
