                         Program Version 4.2.0 -  RELEASE  -
|  1> # ORCA input file
|  2> # SCF done       -209.995540261193          0.000536516914
|  3> ! wb97x-d3 def2-SVP def2/J RIJCOSX Grid4 TightSCF
|  4> %maxcore 5000
|  5> %tddft
|  6>     Mode sTDDFT
|  7>     Ethresh 5.0
|  8>     maxcore 5000
|  9> end
| 10>
| 11> %pal
| 12>   nprocs 6
| 13>   end
| 14> * xyz 0 1
| 15>    C       -6.60766         3.33459        -2.53123
| 16>    O       -6.30307         3.11394        -1.37344
| 17>    C       -7.50563         2.51166        -3.36826
| 18>    C       -8.17446         1.35343        -3.02656
| 19>    C       -8.96649         0.75995        -3.99647
| 20>    C       -9.07445         1.32362        -5.26797
| 21>    C       -8.40165         2.48777        -5.60992
| 22>    C       -7.60747         3.08788        -4.64557
| 23>    C       -6.78480         4.29900        -4.68386
| 24>    C       -6.64258         5.11791        -5.77389
| 25>    C       -5.85535         6.28729        -5.83213
| 26>    N       -5.24126         7.24879        -5.96624
| 27>    C       -7.27601         4.89942        -7.01628
| 28>    N       -7.75775         4.78316        -8.05123
| 29>    C       -6.17428         4.44741        -3.37836
| 30>    C       -5.33462         5.46682        -2.99493
| 31>    C       -0.70580         6.06954        18.82996
| 32>    O       -0.35882         5.13827        18.13264
| 33>    C       -0.80435         6.03239        20.30585
| 34>    C       -0.56249         4.96272        21.14498
| 35>    C       -0.73356         5.16214        22.50486
| 36>    C       -1.13657         6.40513        22.99420
| 37>    C       -1.37516         7.47947        22.15027
| 38>    C       -1.20465         7.28776        20.78758
| 39>    C       -1.36786         8.19412        19.65065
| 40>    C       -1.67207         9.52599        19.75841
| 41>    C       -1.78312        10.45442        18.70040
| 42>    N       -1.88331        11.28711        17.91549
| 43>    C       -1.90284        10.18639        20.98524
| 44>    N       -2.10524        10.78765        21.94156
| 45>    C       -1.11314         7.43334        18.43809
| 46>    C       -1.30590         7.94226        17.17626
| 47>    C       -1.14225         7.38094        15.90186
| 48>    S       -1.63122         8.40830        14.54476
| 49>    C       -1.21795         7.17190        13.44859
| 50>    C       -0.71296         6.02650        14.08470
| 51>    C       -0.67153         6.14430        15.45799
| 52>    C       -1.24434         6.94144        12.05607
| 53>    C       -0.76648         5.65494        11.79394
| 54>    C       -0.39314         4.94854        13.07442
| 55>    S       -1.67603         7.79689        10.63923
| 56>    C       -1.23741         6.40956         9.66739
| 57>    C       -0.75865         5.36115        10.43592
| 58>    C       -1.44892         6.42654         8.24122
| 59>    C       -1.68204         5.25604         7.50262
| 60>    C       -1.94965         5.27671         6.14709
| 61>    C       -1.99031         6.46529         5.40211
| 62>    C       -1.73513         7.63381         6.13696
| 63>    C       -1.48527         7.61457         7.49577
| 64>    C       -2.31263         6.49246         3.99741
| 65>    S       -3.29422         5.22900         3.28950
| 66>    C       -3.26510         6.04546         1.78683
| 67>    C       -2.52054         7.22643         1.82246
| 68>    C       -1.97583         7.47151         3.07646
| 69>    C       -3.79006         5.85693         0.48979
| 70>    C       -3.36423         6.92811        -0.31797
| 71>    C       -2.49602         7.89035         0.46390
| 72>    S       -4.80812         4.74508        -0.31161
| 73>    C       -4.70329         5.71788        -1.77321
| 74>    C       -3.88961         6.84960        -1.58505
| 75>    C       -1.04068         7.90366        -0.04699
| 76>    C       -0.86002         8.46085        -1.45227
| 77>    C       -3.17161         9.27592         0.46930
| 78>    C       -2.44765        10.34642         1.27468
| 79>    C       -1.30877         3.73767        13.36382
| 80>    C       -1.23168         2.60846        12.34538
| 81>    C        1.09385         4.55818        13.10433
| 82>    C        2.02215         5.75937        12.96600
| 83>    F       -1.26437         8.78636         8.11003
| 84>    F       -2.16984         4.10470         5.53369
| 85>    F       -1.29997         6.56905        24.31160
| 86>    F       -0.51300         4.15378        23.35684
| 87>    F       -9.63414        -0.36410        -3.71097
| 88>    F       -9.84597         0.72986        -6.18504
| 89>    F       -1.76438         8.82830         5.52690
| 90>    F       -1.68545         4.06527         8.12075
| 91>    H       -8.08760         0.92193        -2.04218
| 92>    H       -8.52018         2.88097        -6.60605
| 93>    H       -5.11545         6.21776        -3.74422
| 94>    H       -0.25285         4.00433        20.75980
| 95>    H       -1.68593         8.41648        22.58152
| 96>    H       -1.67696         8.95957        17.13798
| 97>    H       -0.32473         5.39082        16.14048
| 98>    H       -0.39825         4.44332        10.01176
| 99>    H       -1.34238         8.30398         3.31659
|100>    H       -3.73450         7.56143        -2.37619
|101>    H       -0.43907         8.48160         0.65577
|102>    H       -0.67310         6.87442        -0.02309
|103>    H       -1.19463         9.49226        -1.51698
|104>    H        0.19407         8.43101        -1.71854
|105>    H       -1.40759         7.86700        -2.17851
|106>    H       -3.27321         9.60538        -0.56558
|107>    H       -4.17987         9.14971         0.87196
|108>    H       -1.44162        10.51341         0.90020
|109>    H       -2.99461        11.28331         1.19804
|110>    H       -2.39301        10.07577         2.32499
|111>    H       -1.04404         3.35515        14.35139
|112>    H       -2.33905         4.09886        13.41353
|113>    H       -0.22558         2.20502        12.27457
|114>    H       -1.89452         1.80363        12.65424
|115>    H       -1.54814         2.94516        11.36238
|116>    H        1.29672         4.04859        14.04770
|117>    H        1.28952         3.86185        12.28857
|118>    H        1.88237         6.45544        13.78972
|119>    H        3.05796         5.42937        12.97086
|120>    H        1.83597         6.28770        12.03341
|121> *
|122>
|123>                          ****END OF INPUT****

CARTESIAN COORDINATES (ANGSTROEM)
---------------------------------
  C     -6.607660    3.334590   -2.531230
  O     -6.303070    3.113940   -1.373440
  C     -7.505630    2.511660   -3.368260
  C     -8.174460    1.353430   -3.026560
  C     -8.966490    0.759950   -3.996470
  C     -9.074450    1.323620   -5.267970
  C     -8.401650    2.487770   -5.609920
  C     -7.607470    3.087880   -4.645570
  C     -6.784800    4.299000   -4.683860
  C     -6.642580    5.117910   -5.773890
  C     -5.855350    6.287290   -5.832130
  N     -5.241260    7.248790   -5.966240
  C     -7.276010    4.899420   -7.016280
  N     -7.757750    4.783160   -8.051230
  C     -6.174280    4.447410   -3.378360
  C     -5.334620    5.466820   -2.994930
  C     -0.705800    6.069540   18.829960
  O     -0.358820    5.138270   18.132640
  C     -0.804350    6.032390   20.305850
  C     -0.562490    4.962720   21.144980
  C     -0.733560    5.162140   22.504860
  C     -1.136570    6.405130   22.994200
  C     -1.375160    7.479470   22.150270
  C     -1.204650    7.287760   20.787580
  C     -1.367860    8.194120   19.650650
  C     -1.672070    9.525990   19.758410
  C     -1.783120   10.454420   18.700400
  N     -1.883310   11.287110   17.915490
  C     -1.902840   10.186390   20.985240
  N     -2.105240   10.787650   21.941560
  C     -1.113140    7.433340   18.438090
  C     -1.305900    7.942260   17.176260
  C     -1.142250    7.380940   15.901860
  S     -1.631220    8.408300   14.544760
  C     -1.217950    7.171900   13.448590
  C     -0.712960    6.026500   14.084700
  C     -0.671530    6.144300   15.457990
  C     -1.244340    6.941440   12.056070
  C     -0.766480    5.654940   11.793940
  C     -0.393140    4.948540   13.074420
  S     -1.676030    7.796890   10.639230
  C     -1.237410    6.409560    9.667390
  C     -0.758650    5.361150   10.435920
  C     -1.448920    6.426540    8.241220
  C     -1.682040    5.256040    7.502620
  C     -1.949650    5.276710    6.147090
  C     -1.990310    6.465290    5.402110
  C     -1.735130    7.633810    6.136960
  C     -1.485270    7.614570    7.495770
  C     -2.312630    6.492460    3.997410
  S     -3.294220    5.229000    3.289500
  C     -3.265100    6.045460    1.786830
  C     -2.520540    7.226430    1.822460
  C     -1.975830    7.471510    3.076460
  C     -3.790060    5.856930    0.489790
  C     -3.364230    6.928110   -0.317970
  C     -2.496020    7.890350    0.463900
  S     -4.808120    4.745080   -0.311610
  C     -4.703290    5.717880   -1.773210
  C     -3.889610    6.849600   -1.585050
  C     -1.040680    7.903660   -0.046990
  C     -0.860020    8.460850   -1.452270
  C     -3.171610    9.275920    0.469300
  C     -2.447650   10.346420    1.274680
  C     -1.308770    3.737670   13.363820
  C     -1.231680    2.608460   12.345380
  C      1.093850    4.558180   13.104330
  C      2.022150    5.759370   12.966000
  F     -1.264370    8.786360    8.110030
  F     -2.169840    4.104700    5.533690
  F     -1.299970    6.569050   24.311600
  F     -0.513000    4.153780   23.356840
  F     -9.634140   -0.364100   -3.710970
  F     -9.845970    0.729860   -6.185040
  F     -1.764380    8.828300    5.526900
  F     -1.685450    4.065270    8.120750
  H     -8.087600    0.921930   -2.042180
  H     -8.520180    2.880970   -6.606050
  H     -5.115450    6.217760   -3.744220
  H     -0.252850    4.004330   20.759800
  H     -1.685930    8.416480   22.581520
  H     -1.676960    8.959570   17.137980
  H     -0.324730    5.390820   16.140480
  H     -0.398250    4.443320   10.011760
  H     -1.342380    8.303980    3.316590
  H     -3.734500    7.561430   -2.376190
  H     -0.439070    8.481600    0.655770
  H     -0.673100    6.874420   -0.023090
  H     -1.194630    9.492260   -1.516980
  H      0.194070    8.431010   -1.718540
  H     -1.407590    7.867000   -2.178510
  H     -3.273210    9.605380   -0.565580
  H     -4.179870    9.149710    0.871960
  H     -1.441620   10.513410    0.900200
  H     -2.994610   11.283310    1.198040
  H     -2.393010   10.075770    2.324990
  H     -1.044040    3.355150   14.351390
  H     -2.339050    4.098860   13.413530
  H     -0.225580    2.205020   12.274570
  H     -1.894520    1.803630   12.654240
  H     -1.548140    2.945160   11.362380
  H      1.296720    4.048590   14.047700
  H      1.289520    3.861850   12.288570
  H      1.882370    6.455440   13.789720
  H      3.057960    5.429370   12.970860
  H      1.835970    6.287700   12.033410

 Total Charge           Charge          ....    0
 Multiplicity           Mult            ....    1
 Number of Electrons    NEL             ....  558
 Basis Dimension        Dim             .... 1230

ORBITAL ENERGIES
----------------

  NO   OCC          E(Eh)            E(eV)
   0   2.0000     -89.005977     -2421.9758
   1   2.0000     -89.004923     -2421.9471
   2   2.0000     -89.003818     -2421.9170
   3   2.0000     -88.999591     -2421.8020
   4   2.0000     -24.849147      -676.1797
   5   2.0000     -24.848798      -676.1702
   6   2.0000     -24.848365      -676.1584
   7   2.0000     -24.848025      -676.1491
   8   2.0000     -24.834601      -675.7838
   9   2.0000     -24.834221      -675.7735
  10   2.0000     -24.832647      -675.7307
  11   2.0000     -24.832495      -675.7265
  12   2.0000     -19.261233      -524.1248
  13   2.0000     -19.260602      -524.1076
  14   2.0000     -14.454902      -393.3379
  15   2.0000     -14.453664      -393.3042
  16   2.0000     -14.450146      -393.2085
  17   2.0000     -14.450018      -393.2050
  18   2.0000     -10.428280      -283.7679
  19   2.0000     -10.428083      -283.7626
  20   2.0000     -10.427416      -283.7444
  21   2.0000     -10.427295      -283.7411
  22   2.0000     -10.420193      -283.5479
  23   2.0000     -10.419939      -283.5410
  24   2.0000     -10.419608      -283.5320
  25   2.0000     -10.419344      -283.5248
  26   2.0000     -10.410276      -283.2780
  27   2.0000     -10.408234      -283.2225
  28   2.0000     -10.382534      -282.5231
  29   2.0000     -10.382468      -282.5213
  30   2.0000     -10.378517      -282.4138
  31   2.0000     -10.378247      -282.4065
  32   2.0000     -10.370137      -282.1858
  33   2.0000     -10.370043      -282.1832
  34   2.0000     -10.368599      -282.1439
  35   2.0000     -10.366981      -282.0999
  36   2.0000     -10.366064      -282.0750
  37   2.0000     -10.363249      -281.9983
  38   2.0000     -10.361748      -281.9575
  39   2.0000     -10.356302      -281.8093
  40   2.0000     -10.356186      -281.8061
  41   2.0000     -10.355572      -281.7894
  42   2.0000     -10.354759      -281.7673
  43   2.0000     -10.354683      -281.7652
  44   2.0000     -10.353449      -281.7317
  45   2.0000     -10.351722      -281.6847
  46   2.0000     -10.351609      -281.6816
  47   2.0000     -10.351511      -281.6789
  48   2.0000     -10.351476      -281.6780
  49   2.0000     -10.351471      -281.6778
  50   2.0000     -10.343082      -281.4496
  51   2.0000     -10.343046      -281.4486
  52   2.0000     -10.342483      -281.4333
  53   2.0000     -10.342381      -281.4305
  54   2.0000     -10.339556      -281.3536
  55   2.0000     -10.338880      -281.3352
  56   2.0000     -10.336882      -281.2809
  57   2.0000     -10.336778      -281.2780
  58   2.0000     -10.336608      -281.2734
  59   2.0000     -10.334634      -281.2197
  60   2.0000     -10.331538      -281.1354
  61   2.0000     -10.330557      -281.1088
  62   2.0000     -10.329970      -281.0928
  63   2.0000     -10.329073      -281.0684
  64   2.0000     -10.328611      -281.0558
  65   2.0000     -10.327371      -281.0221
  66   2.0000     -10.324284      -280.9380
  67   2.0000     -10.322848      -280.8990
  68   2.0000     -10.312938      -280.6293
  69   2.0000     -10.312387      -280.6143
  70   2.0000     -10.312002      -280.6038
  71   2.0000     -10.311934      -280.6020
  72   2.0000     -10.297445      -280.2077
  73   2.0000     -10.297370      -280.2057
  74   2.0000     -10.295932      -280.1666
  75   2.0000     -10.291929      -280.0576
  76   2.0000      -8.119361      -220.9390
  77   2.0000      -8.118574      -220.9176
  78   2.0000      -8.117211      -220.8805
  79   2.0000      -8.111100      -220.7142
  80   2.0000      -6.078927      -165.4160
  81   2.0000      -6.077947      -165.3893
  82   2.0000      -6.076744      -165.3566
  83   2.0000      -6.074618      -165.2987
  84   2.0000      -6.073904      -165.2793
  85   2.0000      -6.072472      -165.2404
  86   2.0000      -6.071617      -165.2171
  87   2.0000      -6.070974      -165.1996
  88   2.0000      -6.070789      -165.1946
  89   2.0000      -6.069494      -165.1593
  90   2.0000      -6.066119      -165.0675
  91   2.0000      -6.063491      -164.9960
  92   2.0000      -1.379580       -37.5403
  93   2.0000      -1.378729       -37.5171
  94   2.0000      -1.364153       -37.1205
  95   2.0000      -1.363945       -37.1148
  96   2.0000      -1.362255       -37.0688
  97   2.0000      -1.361767       -37.0556
  98   2.0000      -1.349053       -36.7096
  99   2.0000      -1.348860       -36.7044
 100   2.0000      -1.179500       -32.0958
 101   2.0000      -1.177988       -32.0547
 102   2.0000      -1.070501       -29.1298
 103   2.0000      -1.067378       -29.0448
 104   2.0000      -1.061692       -28.8901
 105   2.0000      -1.061647       -28.8889
 106   2.0000      -1.048378       -28.5278
 107   2.0000      -1.043439       -28.3934
 108   2.0000      -1.043028       -28.3822
 109   2.0000      -1.033734       -28.1293
 110   2.0000      -1.033221       -28.1154
 111   2.0000      -1.032101       -28.0849
 112   2.0000      -1.024314       -27.8730
 113   2.0000      -0.999020       -27.1847
 114   2.0000      -0.997863       -27.1532
 115   2.0000      -0.986071       -26.8323
 116   2.0000      -0.979583       -26.6558
 117   2.0000      -0.952487       -25.9185
 118   2.0000      -0.946471       -25.7548
 119   2.0000      -0.945247       -25.7215
 120   2.0000      -0.936875       -25.4937
 121   2.0000      -0.933125       -25.3916
 122   2.0000      -0.914334       -24.8803
 123   2.0000      -0.913715       -24.8634
 124   2.0000      -0.910968       -24.7887
 125   2.0000      -0.906340       -24.6628
 126   2.0000      -0.898977       -24.4624
 127   2.0000      -0.889178       -24.1958
 128   2.0000      -0.887980       -24.1632
 129   2.0000      -0.886576       -24.1250
 130   2.0000      -0.885823       -24.1045
 131   2.0000      -0.884312       -24.0634
 132   2.0000      -0.881721       -23.9929
 133   2.0000      -0.865491       -23.5512
 134   2.0000      -0.851396       -23.1677
 135   2.0000      -0.838409       -22.8143
 136   2.0000      -0.813935       -22.1483
 137   2.0000      -0.813539       -22.1375
 138   2.0000      -0.811898       -22.0929
 139   2.0000      -0.809751       -22.0344
 140   2.0000      -0.804297       -21.8860
 141   2.0000      -0.792121       -21.5547
 142   2.0000      -0.783138       -21.3103
 143   2.0000      -0.770021       -20.9533
 144   2.0000      -0.761430       -20.7196
 145   2.0000      -0.754260       -20.5244
 146   2.0000      -0.746797       -20.3214
 147   2.0000      -0.746640       -20.3171
 148   2.0000      -0.741133       -20.1673
 149   2.0000      -0.738692       -20.1008
 150   2.0000      -0.736457       -20.0400
 151   2.0000      -0.735209       -20.0061
 152   2.0000      -0.724238       -19.7075
 153   2.0000      -0.720546       -19.6071
 154   2.0000      -0.713115       -19.4048
 155   2.0000      -0.710351       -19.3296
 156   2.0000      -0.701123       -19.0785
 157   2.0000      -0.697964       -18.9926
 158   2.0000      -0.691327       -18.8120
 159   2.0000      -0.687790       -18.7157
 160   2.0000      -0.681384       -18.5414
 161   2.0000      -0.680959       -18.5298
 162   2.0000      -0.679301       -18.4847
 163   2.0000      -0.676278       -18.4025
 164   2.0000      -0.674635       -18.3578
 165   2.0000      -0.670951       -18.2575
 166   2.0000      -0.670674       -18.2500
 167   2.0000      -0.667854       -18.1732
 168   2.0000      -0.660158       -17.9638
 169   2.0000      -0.652011       -17.7421
 170   2.0000      -0.649225       -17.6663
 171   2.0000      -0.647612       -17.6224
 172   2.0000      -0.637701       -17.3527
 173   2.0000      -0.634626       -17.2691
 174   2.0000      -0.631705       -17.1896
 175   2.0000      -0.627939       -17.0871
 176   2.0000      -0.626428       -17.0460
 177   2.0000      -0.624516       -16.9940
 178   2.0000      -0.624265       -16.9871
 179   2.0000      -0.620918       -16.8960
 180   2.0000      -0.613251       -16.6874
 181   2.0000      -0.610168       -16.6035
 182   2.0000      -0.604576       -16.4514
 183   2.0000      -0.601942       -16.3797
 184   2.0000      -0.599365       -16.3096
 185   2.0000      -0.594197       -16.1689
 186   2.0000      -0.592226       -16.1153
 187   2.0000      -0.589350       -16.0370
 188   2.0000      -0.587336       -15.9822
 189   2.0000      -0.587225       -15.9792
 190   2.0000      -0.586730       -15.9657
 191   2.0000      -0.583421       -15.8757
 192   2.0000      -0.583139       -15.8680
 193   2.0000      -0.582263       -15.8442
 194   2.0000      -0.578779       -15.7494
 195   2.0000      -0.577822       -15.7233
 196   2.0000      -0.576747       -15.6941
 197   2.0000      -0.575661       -15.6645
 198   2.0000      -0.571469       -15.5505
 199   2.0000      -0.569358       -15.4930
 200   2.0000      -0.567444       -15.4409
 201   2.0000      -0.562950       -15.3186
 202   2.0000      -0.561096       -15.2682
 203   2.0000      -0.558997       -15.2111
 204   2.0000      -0.557023       -15.1574
 205   2.0000      -0.550275       -14.9737
 206   2.0000      -0.545660       -14.8482
 207   2.0000      -0.542781       -14.7698
 208   2.0000      -0.540024       -14.6948
 209   2.0000      -0.538298       -14.6478
 210   2.0000      -0.535643       -14.5756
 211   2.0000      -0.535287       -14.5659
 212   2.0000      -0.532400       -14.4873
 213   2.0000      -0.530790       -14.4435
 214   2.0000      -0.530328       -14.4310
 215   2.0000      -0.528727       -14.3874
 216   2.0000      -0.526689       -14.3319
 217   2.0000      -0.524768       -14.2797
 218   2.0000      -0.524227       -14.2649
 219   2.0000      -0.522255       -14.2113
 220   2.0000      -0.518740       -14.1156
 221   2.0000      -0.517137       -14.0720
 222   2.0000      -0.516463       -14.0537
 223   2.0000      -0.515574       -14.0295
 224   2.0000      -0.513207       -13.9651
 225   2.0000      -0.510240       -13.8843
 226   2.0000      -0.497929       -13.5493
 227   2.0000      -0.497843       -13.5470
 228   2.0000      -0.492499       -13.4016
 229   2.0000      -0.491875       -13.3846
 230   2.0000      -0.491407       -13.3719
 231   2.0000      -0.490181       -13.3385
 232   2.0000      -0.489638       -13.3237
 233   2.0000      -0.487789       -13.2734
 234   2.0000      -0.486868       -13.2483
 235   2.0000      -0.485939       -13.2231
 236   2.0000      -0.485169       -13.2021
 237   2.0000      -0.482873       -13.1396
 238   2.0000      -0.480463       -13.0741
 239   2.0000      -0.479922       -13.0593
 240   2.0000      -0.478532       -13.0215
 241   2.0000      -0.478045       -13.0083
 242   2.0000      -0.475996       -12.9525
 243   2.0000      -0.471153       -12.8207
 244   2.0000      -0.468551       -12.7499
 245   2.0000      -0.465053       -12.6547
 246   2.0000      -0.464379       -12.6364
 247   2.0000      -0.463684       -12.6175
 248   2.0000      -0.460917       -12.5422
 249   2.0000      -0.459320       -12.4987
 250   2.0000      -0.458329       -12.4718
 251   2.0000      -0.455081       -12.3834
 252   2.0000      -0.453029       -12.3276
 253   2.0000      -0.444393       -12.0926
 254   2.0000      -0.443764       -12.0754
 255   2.0000      -0.442184       -12.0324
 256   2.0000      -0.441498       -12.0138
 257   2.0000      -0.439810       -11.9678
 258   2.0000      -0.437852       -11.9146
 259   2.0000      -0.432567       -11.7707
 260   2.0000      -0.431162       -11.7325
 261   2.0000      -0.430171       -11.7055
 262   2.0000      -0.418686       -11.3930
 263   2.0000      -0.403151       -10.9703
 264   2.0000      -0.386010       -10.5039
 265   2.0000      -0.383430       -10.4337
 266   2.0000      -0.378555       -10.3010
 267   2.0000      -0.375324       -10.2131
 268   2.0000      -0.372945       -10.1483
 269   2.0000      -0.372590       -10.1387
 270   2.0000      -0.369577       -10.0567
 271   2.0000      -0.366994        -9.9864
 272   2.0000      -0.366183        -9.9643
 273   2.0000      -0.362883        -9.8746
 274   2.0000      -0.352493        -9.5918
 275   2.0000      -0.346159        -9.4195
 276   2.0000      -0.339205        -9.2302
 277   2.0000      -0.296605        -8.0710
 278   2.0000      -0.280667        -7.6373
 279   0.0000      -0.080458        -2.1894
 280   0.0000      -0.071626        -1.9491
 281   0.0000      -0.045739        -1.2446
 282   0.0000      -0.041614        -1.1324
 283   0.0000      -0.023150        -0.6299

MULLIKEN ATOMIC CHARGES
-----------------------
   0 C :    0.230753
   1 O :   -0.201158
   2 C :   -0.060012
   3 C :   -0.092411
   4 C :    0.240720
   5 C :    0.244747
   6 C :   -0.085149
   7 C :    0.024686
   8 C :    0.293257
   9 C :   -0.383041
  10 C :   -0.123208
  11 N :    0.094027
  12 C :   -0.132608
  13 N :    0.109654
  14 C :   -0.146585
  15 C :   -0.000513
  16 C :    0.225854
  17 O :   -0.188240
  18 C :   -0.055188
  19 C :   -0.095158
  20 C :    0.243412
  21 C :    0.242147
  22 C :   -0.082970
  23 C :    0.025071
  24 C :    0.284304
  25 C :   -0.381702
  26 C :   -0.128813
  27 N :    0.108374
  28 C :   -0.134101
  29 N :    0.107071
  30 C :   -0.143580
  31 C :    0.072501
  32 C :   -0.160553
  33 S :    0.182116
  34 C :   -0.053350
  35 C :   -0.026377
  36 C :    0.018794
  37 C :   -0.089294
  38 C :    0.005137
  39 C :   -0.192718
  40 S :    0.200510
  41 C :   -0.097563
  42 C :   -0.031722
  43 C :   -0.067940
  44 C :    0.204078
  45 C :    0.194242
  46 C :   -0.070950
  47 C :    0.205579
  48 C :    0.193228
  49 C :   -0.095707
  50 S :    0.199945
  51 C :   -0.097787
  52 C :    0.012850
  53 C :   -0.032704
  54 C :   -0.051333
  55 C :    0.038546
  56 C :   -0.170748
  57 S :    0.223287
  58 C :   -0.089405
  59 C :   -0.063800
  60 C :    0.015376
  61 C :   -0.014991
  62 C :    0.012478
  63 C :   -0.016014
  64 C :    0.030317
  65 C :   -0.019377
  66 C :    0.017735
  67 C :   -0.024136
  68 F :   -0.179783
  69 F :   -0.179834
  70 F :   -0.180204
  71 F :   -0.183541
  72 F :   -0.183321
  73 F :   -0.179801
  74 F :   -0.182577
  75 F :   -0.182327
  76 H :    0.041363
  77 H :    0.044581
  78 H :    0.026831
  79 H :    0.038987
  80 H :    0.045354
  81 H :    0.023371
  82 H :    0.036774
  83 H :    0.025808
  84 H :    0.026173
  85 H :    0.034872
  86 H :    0.029485
  87 H :    0.034576
  88 H :    0.030502
  89 H :    0.044242
  90 H :    0.032446
  91 H :    0.030947
  92 H :    0.035431
  93 H :    0.028116
  94 H :    0.043969
  95 H :    0.033752
  96 H :    0.033401
  97 H :    0.034164
  98 H :    0.029727
  99 H :    0.042651
 100 H :    0.034438
 101 H :    0.034746
 102 H :    0.033660
 103 H :    0.043672
 104 H :    0.038939
 105 H :    0.038524
Sum of atomic charges:   -0.0000000

LOEWDIN ATOMIC CHARGES
----------------------
   0 C :    0.091784
   1 O :   -0.168800
   2 C :   -0.049774
   3 C :   -0.006967
   4 C :    0.073975
   5 C :    0.077082
   6 C :   -0.017622
   7 C :   -0.019009
   8 C :    0.081665
   9 C :   -0.150519
  10 C :   -0.014291
  11 N :   -0.058471
  12 C :   -0.015199
  13 N :   -0.054078
  14 C :   -0.133390
  15 C :    0.065515
  16 C :    0.097038
  17 O :   -0.150556
  18 C :   -0.049986
  19 C :   -0.007638
  20 C :    0.074279
  21 C :    0.077375
  22 C :   -0.017703
  23 C :   -0.019845
  24 C :    0.080679
  25 C :   -0.148819
  26 C :   -0.019274
  27 N :   -0.052054
  28 C :   -0.014219
  29 N :   -0.053944
  30 C :   -0.121716
  31 C :    0.056688
  32 C :   -0.185803
  33 S :    0.461716
  34 C :   -0.164078
  35 C :   -0.043751
  36 C :    0.002277
  37 C :   -0.203395
  38 C :   -0.025979
  39 C :   -0.038322
  40 S :    0.466161
  41 C :   -0.166441
  42 C :   -0.044220
  43 C :   -0.085050
  44 C :    0.068373
  45 C :    0.059073
  46 C :   -0.083554
  47 C :    0.068326
  48 C :    0.059160
  49 C :   -0.167755
  50 S :    0.466230
  51 C :   -0.202945
  52 C :   -0.024653
  53 C :   -0.044222
  54 C :   -0.168144
  55 C :   -0.046739
  56 C :   -0.036680
  57 S :    0.510236
  58 C :   -0.193890
  59 C :   -0.008103
  60 C :   -0.015877
  61 C :   -0.059348
  62 C :   -0.016300
  63 C :   -0.060058
  64 C :   -0.011723
  65 C :   -0.060859
  66 C :   -0.015618
  67 C :   -0.058308
  68 F :   -0.049052
  69 F :   -0.048767
  70 F :   -0.047314
  71 F :   -0.049487
  72 F :   -0.049257
  73 F :   -0.047249
  74 F :   -0.044418
  75 F :   -0.044544
  76 H :    0.055485
  77 H :    0.053888
  78 H :    0.052154
  79 H :    0.054464
  80 H :    0.053984
  81 H :    0.044131
  82 H :    0.037397
  83 H :    0.034352
  84 H :    0.033348
  85 H :    0.040681
  86 H :    0.023079
  87 H :    0.031955
  88 H :    0.024285
  89 H :    0.034175
  90 H :    0.025916
  91 H :    0.023964
  92 H :    0.032276
  93 H :    0.023502
  94 H :    0.034394
  95 H :    0.026223
  96 H :    0.027511
  97 H :    0.030549
  98 H :    0.023896
  99 H :    0.033757
 100 H :    0.025653
 101 H :    0.028410
 102 H :    0.024382
 103 H :    0.027722
 104 H :    0.029923
 105 H :    0.026692

  Mayer bond orders larger than 0.100000
B(  0-C ,  1-O ) :   2.1244 B(  0-C ,  2-C ) :   0.9690 B(  0-C , 14-C ) :   0.9888
B(  2-C ,  3-C ) :   1.3439 B(  2-C ,  7-C ) :   1.3448 B(  3-C ,  4-C ) :   1.3268
B(  3-C , 76-H ) :   1.0156 B(  4-C ,  5-C ) :   1.2956 B(  4-C , 72-F ) :   1.1005
B(  5-C ,  6-C ) :   1.3475 B(  5-C , 73-F ) :   1.1135 B(  6-C ,  7-C ) :   1.3367
B(  6-C , 77-H ) :   0.9886 B(  7-C ,  8-C ) :   1.0130 B(  8-C ,  9-C ) :   1.6328
B(  8-C , 14-C ) :   1.1061 B(  9-C , 10-C ) :   1.1338 B(  9-C , 12-C ) :   1.1300
B( 10-C , 11-N ) :   2.9525 B( 12-C , 13-N ) :   2.9738 B( 14-C , 15-C ) :   1.4943
B( 15-C , 58-C ) :   1.3159 B( 15-C , 78-H ) :   0.9394 B( 16-C , 17-O ) :   2.1414
B( 16-C , 18-C ) :   0.9665 B( 16-C , 30-C ) :   0.9572 B( 18-C , 19-C ) :   1.3422
B( 18-C , 23-C ) :   1.3467 B( 19-C , 20-C ) :   1.3300 B( 19-C , 79-H ) :   1.0153
B( 20-C , 21-C ) :   1.2918 B( 20-C , 71-F ) :   1.1009 B( 21-C , 22-C ) :   1.3533
B( 21-C , 70-F ) :   1.1142 B( 22-C , 23-C ) :   1.3323 B( 22-C , 80-H ) :   0.9878
B( 23-C , 24-C ) :   1.0139 B( 24-C , 25-C ) :   1.6313 B( 24-C , 30-C ) :   1.1037
B( 25-C , 26-C ) :   1.1293 B( 25-C , 28-C ) :   1.1320 B( 26-C , 27-N ) :   2.9618
B( 28-C , 29-N ) :   2.9725 B( 30-C , 31-C ) :   1.5833 B( 31-C , 32-C ) :   1.2716
B( 31-C , 81-H ) :   0.9074 B( 32-C , 33-S ) :   1.0797 B( 32-C , 36-C ) :   1.3709
B( 33-S , 34-C ) :   1.1454 B( 34-C , 35-C ) :   1.4543 B( 34-C , 37-C ) :   1.2142
B( 35-C , 36-C ) :   1.3742 B( 35-C , 39-C ) :   0.9326 B( 36-C , 82-H ) :   0.9813
B( 37-C , 38-C ) :   1.5154 B( 37-C , 40-S ) :   1.0910 B( 38-C , 39-C ) :   0.9257
B( 38-C , 42-C ) :   1.3334 B( 39-C , 64-C ) :   1.0166 B( 39-C , 66-C ) :   1.0230
B( 40-S , 41-C ) :   1.1311 B( 41-C , 42-C ) :   1.4881 B( 41-C , 43-C ) :   1.0704
B( 42-C , 83-H ) :   0.9989 B( 43-C , 44-C ) :   1.3081 B( 43-C , 46-C ) :   0.1098
B( 43-C , 48-C ) :   1.2951 B( 44-C , 45-C ) :   1.3263 B( 44-C , 75-F ) :   1.1203
B( 45-C , 46-C ) :   1.2954 B( 45-C , 69-F ) :   1.1298 B( 46-C , 47-C ) :   1.3074
B( 46-C , 49-C ) :   1.0719 B( 47-C , 48-C ) :   1.3259 B( 47-C , 74-F ) :   1.1197
B( 48-C , 68-F ) :   1.1303 B( 49-C , 50-S ) :   1.1316 B( 49-C , 53-C ) :   1.4852
B( 50-S , 51-C ) :   1.0894 B( 51-C , 52-C ) :   1.5209 B( 51-C , 54-C ) :   1.2214
B( 52-C , 53-C ) :   1.3360 B( 52-C , 56-C ) :   0.9404 B( 53-C , 84-H ) :   0.9967
B( 54-C , 55-C ) :   1.4391 B( 54-C , 57-S ) :   1.1113 B( 55-C , 56-C ) :   0.9294
B( 55-C , 59-C ) :   1.4051 B( 56-C , 60-C ) :   1.0007 B( 56-C , 62-C ) :   1.0025
B( 57-S , 58-C ) :   1.0683 B( 58-C , 59-C ) :   1.3192 B( 59-C , 85-H ) :   1.0084
B( 60-C , 61-C ) :   1.0978 B( 60-C , 86-H ) :   0.9473 B( 60-C , 87-H ) :   0.9457
B( 61-C , 88-H ) :   0.9658 B( 61-C , 89-H ) :   0.9674 B( 61-C , 90-H ) :   0.9672
B( 62-C , 63-C ) :   1.0991 B( 62-C , 91-H ) :   0.9468 B( 62-C , 92-H ) :   0.9465
B( 63-C , 93-H ) :   0.9653 B( 63-C , 94-H ) :   0.9667 B( 63-C , 95-H ) :   0.9668
B( 64-C , 65-C ) :   1.0999 B( 64-C , 96-H ) :   0.9442 B( 64-C , 97-H ) :   0.9482
B( 65-C , 98-H ) :   0.9673 B( 65-C , 99-H ) :   0.9665 B( 65-C ,100-H ) :   0.9662
B( 66-C , 67-C ) :   1.0857 B( 66-C ,101-H ) :   0.9497 B( 66-C ,102-H ) :   0.9485
B( 67-C ,103-H ) :   0.9673 B( 67-C ,104-H ) :   0.9708 B( 67-C ,105-H ) :   0.9703

-----------------------------------------------------------------------------
         ABSORPTION SPECTRUM VIA TRANSITION ELECTRIC DIPOLE MOMENTS
-----------------------------------------------------------------------------
State   Energy  Wavelength   fosc         T2         TX        TY        TZ
        (cm-1)    (nm)                  (au**2)     (au)      (au)      (au)
-----------------------------------------------------------------------------
   0   19888.5    502.8   4.102122619  67.90210   1.78806   1.48223   7.90620
   1   23949.0    417.6   0.210161061   2.88895   1.67903  -0.08193  -0.25120
   2   29530.7    338.6   0.043316034   0.48289   0.52097   0.04730   0.45743
   3   30106.2    332.2   0.029573926   0.32339   0.12105   0.43058  -0.35120
   4   34544.6    289.5   0.179875919   1.71423   0.37357   1.22483  -0.27289
   5   35033.5    285.4   0.017211591   0.16174  -0.01294  -0.15790   0.36965
   6   36230.7    276.0   0.711703783   6.46692  -0.29375  -2.14561   1.33303
   7   38589.9    259.1   0.014127214   0.12052  -0.13936   0.29077  -0.12865
   8   39757.7    251.5   0.152657894   1.26408  -0.55183   0.93327   0.29759
   9   40140.7    249.1   0.212460454   1.74248   0.40896  -0.73377  -1.01824

Dispersion correction           -0.064408290
FINAL SINGLE POINT ENERGY     -4985.111546686460

DIPOLE MOMENT
-------------
                                X             Y             Z
Electronic contribution:    -42.20868     -21.06738      20.96309
Nuclear contribution   :     44.01928      19.45175     -20.86689
                        -----------------------------------------
Total Dipole Moment    :      1.81060      -1.61563       0.09620
                        -----------------------------------------
Magnitude (a.u.)       :      2.42853
Magnitude (Debye)      :      6.17284

Rotational constants in cm-1:     0.002050     0.000159     0.000153
Rotational constants in MHz :    61.461352     4.769320     4.588956

                             ****ORCA TERMINATED NORMALLY****
TOTAL RUN TIME: 0 days 0 hours 15 minutes 47 seconds 554 msec
