                         Program Version 4.2.0 -  RELEASE  -
|  1> # ORCA input file
|  2> # SCF done       -160.730631882076          0.000667639962
|  3> ! wb97x-d3 def2-SVP def2/J RIJCOSX Grid4 TightSCF
|  4> %maxcore 5000
|  5> %tddft
|  6>     Mode sTDDFT
|  7>     Ethresh 5.0
|  8>     maxcore 5000
|  9> end
| 10>
| 11> %pal
| 12>   nprocs 6
| 13>   end
| 14> * xyz 0 1
| 15>    C        0.94542        -2.57433        -1.86172
| 16>    C        1.90657        -3.23611        -2.62020
| 17>    C        2.89888        -2.58249        -3.33899
| 18>    C        3.01796        -1.19608        -3.35880
| 19>    C        2.06454        -0.47916        -2.58385
| 20>    C        1.03492        -1.15451        -1.84174
| 21>    N        1.99289         0.84272        -2.44860
| 22>    S        0.75865         1.20330        -1.48582
| 23>    N        0.25228        -0.29322        -1.19322
| 24>    C        3.99464        -0.44392        -4.07962
| 25>    C        4.97476        -0.89437        -4.91050
| 26>    C        5.84147         0.03371        -5.53472
| 27>    C        5.25144        -2.23387        -5.25403
| 28>    N        6.54218         0.78655        -6.04103
| 29>    N        5.52495        -3.30175        -5.57463
| 30>    C       -6.63378       -12.64038         2.26794
| 31>    C       -6.00534       -13.87241         2.11407
| 32>    C       -6.63254       -15.08282         2.37904
| 33>    C       -7.95804       -15.16633         2.78967
| 34>    C       -8.61902       -13.93330         3.01892
| 35>    C       -7.96872       -12.67661         2.75959
| 36>    N       -9.83342       -13.76873         3.53560
| 37>    S      -10.15196       -12.20218         3.64213
| 38>    N       -8.75757       -11.64725         3.06615
| 39>    C       -8.59209       -16.43704         2.97688
| 40>    C       -9.91987       -16.70438         2.86859
| 41>    C      -10.39723       -18.01313         3.11653
| 42>    C      -10.91859       -15.81901         2.40257
| 43>    N      -10.77411       -19.07504         3.32782
| 44>    N      -11.77045       -15.20962         1.93447
| 45>    C       -0.07930        -3.27622        -1.15585
| 46>    C       -1.10481        -2.76090        -0.39087
| 47>    C       -1.94981        -3.73640         0.13500
| 48>    C       -1.59279        -5.02430        -0.20570
| 49>    S       -0.17159        -5.01598        -1.20137
| 50>    C       -2.24232        -6.26084         0.15194
| 51>    C       -1.59650        -7.48800        -0.05327
| 52>    C       -2.19550        -8.68544         0.27506
| 53>    C       -3.47211        -8.66091         0.82099
| 54>    C       -4.13634        -7.43297         1.03504
| 55>    C       -3.53494        -6.24734         0.70091
| 56>    C       -4.36480        -9.69561         1.23854
| 57>    C       -5.56716        -9.16097         1.67736
| 58>    C       -5.52949        -7.65589         1.60165
| 59>    S       -4.34043       -11.40647         1.32351
| 60>    C       -5.97863       -11.40853         1.96125
| 61>    C       -6.47969       -10.12537         2.08967
| 62>    C       -5.72914        -7.10803         3.00216
| 63>    C       -6.52820        -7.06919         0.62071
| 64>    C       -4.66784        -6.68411         3.78765
| 65>    C       -4.88961        -6.22661         5.07483
| 66>    C       -6.16831        -6.19415         5.61254
| 67>    C       -7.22616        -6.63265         4.82509
| 68>    C       -7.01155        -7.08629         3.53883
| 69>    C       -7.03874        -7.82797        -0.42294
| 70>    C       -7.90141        -7.26333        -1.34401
| 71>    C       -8.26677        -5.92698        -1.25524
| 72>    C       -7.74898        -5.17045        -0.21203
| 73>    C       -6.88864        -5.73076         0.71286
| 74>    C       -6.41279        -5.65325         6.99169
| 75>    C       -6.74169        -4.16016         6.92929
| 76>    C       -9.23616        -5.32898        -2.23324
| 77>    C      -10.67353        -5.51803        -1.74406
| 78>    H        1.87413        -4.31538        -2.65536
| 79>    H        3.59777        -3.18053        -3.90136
| 80>    H        3.92621         0.62840        -3.93952
| 81>    H       -4.98298       -13.88617         1.76527
| 82>    H       -6.08085       -15.99808         2.22032
| 83>    H       -7.93478       -17.27220         3.19118
| 84>    H       -1.22236        -1.70503        -0.23119
| 85>    H       -2.79142        -3.50338         0.76161
| 86>    H       -0.60306        -7.48689        -0.47778
| 87>    H       -1.68831        -9.62370         0.10968
| 88>    H       -4.05729        -5.31504         0.84375
| 89>    H       -7.46760        -9.93725         2.46561
| 90>    H       -3.66108        -6.70744         3.39654
| 91>    H       -4.05158        -5.89422         5.67104
| 92>    H       -8.22951        -6.62132         5.22633
| 93>    H       -7.84603        -7.41862         2.93879
| 94>    H       -6.76398        -8.86823        -0.51888
| 95>    H       -8.29232        -7.87059        -2.14790
| 96>    H       -8.01989        -4.12777        -0.12422
| 97>    H       -6.50309        -5.12592         1.52120
| 98>    H       -7.24595        -6.18529         7.45521
| 99>    H       -5.52578        -5.80085         7.61071
|100>    H       -7.63113        -3.99351         6.32573
|101>    H       -6.92068        -3.76767         7.92751
|102>    H       -5.91680        -3.60962         6.48233
|103>    H       -9.03326        -4.26268        -2.35124
|104>    H       -9.12199        -5.80866        -3.20737
|105>    H      -10.81129        -5.03506        -0.77920
|106>    H      -11.37642        -5.08633        -2.45261
|107>    H      -10.89865        -6.57618        -1.63192
|108> *
|109>
|110>                          ****END OF INPUT****

CARTESIAN COORDINATES (ANGSTROEM)
---------------------------------
  C      0.945420   -2.574330   -1.861720
  C      1.906570   -3.236110   -2.620200
  C      2.898880   -2.582490   -3.338990
  C      3.017960   -1.196080   -3.358800
  C      2.064540   -0.479160   -2.583850
  C      1.034920   -1.154510   -1.841740
  N      1.992890    0.842720   -2.448600
  S      0.758650    1.203300   -1.485820
  N      0.252280   -0.293220   -1.193220
  C      3.994640   -0.443920   -4.079620
  C      4.974760   -0.894370   -4.910500
  C      5.841470    0.033710   -5.534720
  C      5.251440   -2.233870   -5.254030
  N      6.542180    0.786550   -6.041030
  N      5.524950   -3.301750   -5.574630
  C     -6.633780  -12.640380    2.267940
  C     -6.005340  -13.872410    2.114070
  C     -6.632540  -15.082820    2.379040
  C     -7.958040  -15.166330    2.789670
  C     -8.619020  -13.933300    3.018920
  C     -7.968720  -12.676610    2.759590
  N     -9.833420  -13.768730    3.535600
  S    -10.151960  -12.202180    3.642130
  N     -8.757570  -11.647250    3.066150
  C     -8.592090  -16.437040    2.976880
  C     -9.919870  -16.704380    2.868590
  C    -10.397230  -18.013130    3.116530
  C    -10.918590  -15.819010    2.402570
  N    -10.774110  -19.075040    3.327820
  N    -11.770450  -15.209620    1.934470
  C     -0.079300   -3.276220   -1.155850
  C     -1.104810   -2.760900   -0.390870
  C     -1.949810   -3.736400    0.135000
  C     -1.592790   -5.024300   -0.205700
  S     -0.171590   -5.015980   -1.201370
  C     -2.242320   -6.260840    0.151940
  C     -1.596500   -7.488000   -0.053270
  C     -2.195500   -8.685440    0.275060
  C     -3.472110   -8.660910    0.820990
  C     -4.136340   -7.432970    1.035040
  C     -3.534940   -6.247340    0.700910
  C     -4.364800   -9.695610    1.238540
  C     -5.567160   -9.160970    1.677360
  C     -5.529490   -7.655890    1.601650
  S     -4.340430  -11.406470    1.323510
  C     -5.978630  -11.408530    1.961250
  C     -6.479690  -10.125370    2.089670
  C     -5.729140   -7.108030    3.002160
  C     -6.528200   -7.069190    0.620710
  C     -4.667840   -6.684110    3.787650
  C     -4.889610   -6.226610    5.074830
  C     -6.168310   -6.194150    5.612540
  C     -7.226160   -6.632650    4.825090
  C     -7.011550   -7.086290    3.538830
  C     -7.038740   -7.827970   -0.422940
  C     -7.901410   -7.263330   -1.344010
  C     -8.266770   -5.926980   -1.255240
  C     -7.748980   -5.170450   -0.212030
  C     -6.888640   -5.730760    0.712860
  C     -6.412790   -5.653250    6.991690
  C     -6.741690   -4.160160    6.929290
  C     -9.236160   -5.328980   -2.233240
  C    -10.673530   -5.518030   -1.744060
  H      1.874130   -4.315380   -2.655360
  H      3.597770   -3.180530   -3.901360
  H      3.926210    0.628400   -3.939520
  H     -4.982980  -13.886170    1.765270
  H     -6.080850  -15.998080    2.220320
  H     -7.934780  -17.272200    3.191180
  H     -1.222360   -1.705030   -0.231190
  H     -2.791420   -3.503380    0.761610
  H     -0.603060   -7.486890   -0.477780
  H     -1.688310   -9.623700    0.109680
  H     -4.057290   -5.315040    0.843750
  H     -7.467600   -9.937250    2.465610
  H     -3.661080   -6.707440    3.396540
  H     -4.051580   -5.894220    5.671040
  H     -8.229510   -6.621320    5.226330
  H     -7.846030   -7.418620    2.938790
  H     -6.763980   -8.868230   -0.518880
  H     -8.292320   -7.870590   -2.147900
  H     -8.019890   -4.127770   -0.124220
  H     -6.503090   -5.125920    1.521200
  H     -7.245950   -6.185290    7.455210
  H     -5.525780   -5.800850    7.610710
  H     -7.631130   -3.993510    6.325730
  H     -6.920680   -3.767670    7.927510
  H     -5.916800   -3.609620    6.482330
  H     -9.033260   -4.262680   -2.351240
  H     -9.121990   -5.808660   -3.207370
  H    -10.811290   -5.035060   -0.779200
  H    -11.376420   -5.086330   -2.452610
  H    -10.898650   -6.576180   -1.631920

 Total Charge           Charge          ....    0
 Multiplicity           Mult            ....    1
 Number of Electrons    NEL             ....  456
 Basis Dimension        Dim             .... 1048

ORBITAL ENERGIES
----------------

  NO   OCC          E(Eh)            E(eV)
   0   2.0000     -89.062968     -2423.5266
   1   2.0000     -89.058744     -2423.4116
   2   2.0000     -88.995593     -2421.6932
   3   2.0000     -88.991374     -2421.5784
   4   2.0000     -14.493682      -394.3932
   5   2.0000     -14.490873      -394.3167
   6   2.0000     -14.488492      -394.2519
   7   2.0000     -14.484658      -394.1476
   8   2.0000     -14.455032      -393.3414
   9   2.0000     -14.443575      -393.0297
  10   2.0000     -14.442981      -393.0135
  11   2.0000     -14.438474      -392.8908
  12   2.0000     -10.379636      -282.4443
  13   2.0000     -10.378712      -282.4191
  14   2.0000     -10.374478      -282.3039
  15   2.0000     -10.374178      -282.2957
  16   2.0000     -10.371203      -282.2148
  17   2.0000     -10.370188      -282.1872
  18   2.0000     -10.367407      -282.1115
  19   2.0000     -10.366919      -282.0982
  20   2.0000     -10.360723      -281.9296
  21   2.0000     -10.358634      -281.8728
  22   2.0000     -10.354131      -281.7502
  23   2.0000     -10.352752      -281.7127
  24   2.0000     -10.350269      -281.6451
  25   2.0000     -10.348257      -281.5904
  26   2.0000     -10.346576      -281.5447
  27   2.0000     -10.345392      -281.5124
  28   2.0000     -10.345005      -281.5019
  29   2.0000     -10.344239      -281.4810
  30   2.0000     -10.343266      -281.4546
  31   2.0000     -10.342852      -281.4433
  32   2.0000     -10.342754      -281.4406
  33   2.0000     -10.341558      -281.4081
  34   2.0000     -10.338303      -281.3195
  35   2.0000     -10.334788      -281.2239
  36   2.0000     -10.334742      -281.2226
  37   2.0000     -10.333120      -281.1785
  38   2.0000     -10.328981      -281.0659
  39   2.0000     -10.323427      -280.9147
  40   2.0000     -10.320602      -280.8379
  41   2.0000     -10.319630      -280.8114
  42   2.0000     -10.319031      -280.7951
  43   2.0000     -10.318223      -280.7731
  44   2.0000     -10.317678      -280.7583
  45   2.0000     -10.317190      -280.7450
  46   2.0000     -10.315386      -280.6959
  47   2.0000     -10.313184      -280.6360
  48   2.0000     -10.312134      -280.6074
  49   2.0000     -10.304488      -280.3994
  50   2.0000     -10.303329      -280.3678
  51   2.0000     -10.300756      -280.2978
  52   2.0000     -10.300315      -280.2858
  53   2.0000     -10.300192      -280.2825
  54   2.0000     -10.299133      -280.2536
  55   2.0000     -10.299064      -280.2518
  56   2.0000     -10.298791      -280.2444
  57   2.0000     -10.298310      -280.2313
  58   2.0000     -10.298297      -280.2309
  59   2.0000     -10.297199      -280.2010
  60   2.0000     -10.297106      -280.1985
  61   2.0000     -10.289246      -279.9846
  62   2.0000     -10.286957      -279.9223
  63   2.0000      -8.173599      -222.4149
  64   2.0000      -8.169127      -222.2932
  65   2.0000      -8.108949      -220.6557
  66   2.0000      -8.105240      -220.5548
  67   2.0000      -6.135120      -166.9451
  68   2.0000      -6.130589      -166.8218
  69   2.0000      -6.127048      -166.7255
  70   2.0000      -6.126132      -166.7005
  71   2.0000      -6.122549      -166.6030
  72   2.0000      -6.121788      -166.5823
  73   2.0000      -6.068443      -165.1307
  74   2.0000      -6.064655      -165.0277
  75   2.0000      -6.064415      -165.0211
  76   2.0000      -6.061278      -164.9358
  77   2.0000      -6.060581      -164.9168
  78   2.0000      -6.057697      -164.8383
  79   2.0000      -1.179226       -32.0884
  80   2.0000      -1.175047       -31.9746
  81   2.0000      -1.056529       -28.7496
  82   2.0000      -1.050870       -28.5956
  83   2.0000      -1.045398       -28.4467
  84   2.0000      -1.042929       -28.3795
  85   2.0000      -1.033256       -28.1163
  86   2.0000      -1.030888       -28.0519
  87   2.0000      -1.028100       -27.9760
  88   2.0000      -1.025066       -27.8935
  89   2.0000      -1.019695       -27.7473
  90   2.0000      -1.017007       -27.6742
  91   2.0000      -1.004062       -27.3219
  92   2.0000      -0.995618       -27.0921
  93   2.0000      -0.986425       -26.8420
  94   2.0000      -0.973071       -26.4786
  95   2.0000      -0.969743       -26.3880
  96   2.0000      -0.958323       -26.0773
  97   2.0000      -0.934803       -25.4373
  98   2.0000      -0.923518       -25.1302
  99   2.0000      -0.915351       -24.9080
 100   2.0000      -0.913537       -24.8586
 101   2.0000      -0.911075       -24.7916
 102   2.0000      -0.909331       -24.7441
 103   2.0000      -0.900351       -24.4998
 104   2.0000      -0.884048       -24.0562
 105   2.0000      -0.877104       -23.8672
 106   2.0000      -0.870617       -23.6907
 107   2.0000      -0.869945       -23.6724
 108   2.0000      -0.865161       -23.5422
 109   2.0000      -0.859576       -23.3902
 110   2.0000      -0.847253       -23.0549
 111   2.0000      -0.840972       -22.8840
 112   2.0000      -0.824022       -22.4228
 113   2.0000      -0.808776       -22.0079
 114   2.0000      -0.796659       -21.6782
 115   2.0000      -0.785170       -21.3656
 116   2.0000      -0.783487       -21.3198
 117   2.0000      -0.768154       -20.9025
 118   2.0000      -0.761984       -20.7346
 119   2.0000      -0.759062       -20.6551
 120   2.0000      -0.754236       -20.5238
 121   2.0000      -0.748721       -20.3737
 122   2.0000      -0.737499       -20.0684
 123   2.0000      -0.728849       -19.8330
 124   2.0000      -0.727299       -19.7908
 125   2.0000      -0.726493       -19.7689
 126   2.0000      -0.718331       -19.5468
 127   2.0000      -0.705271       -19.1914
 128   2.0000      -0.702453       -19.1147
 129   2.0000      -0.692476       -18.8432
 130   2.0000      -0.688337       -18.7306
 131   2.0000      -0.685243       -18.6464
 132   2.0000      -0.680824       -18.5262
 133   2.0000      -0.675165       -18.3722
 134   2.0000      -0.669775       -18.2255
 135   2.0000      -0.656011       -17.8510
 136   2.0000      -0.648274       -17.6404
 137   2.0000      -0.646660       -17.5965
 138   2.0000      -0.638330       -17.3698
 139   2.0000      -0.634227       -17.2582
 140   2.0000      -0.631673       -17.1887
 141   2.0000      -0.630006       -17.1433
 142   2.0000      -0.614646       -16.7254
 143   2.0000      -0.614041       -16.7089
 144   2.0000      -0.606449       -16.5023
 145   2.0000      -0.602203       -16.3868
 146   2.0000      -0.598339       -16.2816
 147   2.0000      -0.594137       -16.1673
 148   2.0000      -0.589744       -16.0477
 149   2.0000      -0.587072       -15.9751
 150   2.0000      -0.585090       -15.9211
 151   2.0000      -0.575958       -15.6726
 152   2.0000      -0.569422       -15.4947
 153   2.0000      -0.566748       -15.4220
 154   2.0000      -0.565369       -15.3845
 155   2.0000      -0.558323       -15.1927
 156   2.0000      -0.555201       -15.1078
 157   2.0000      -0.552120       -15.0240
 158   2.0000      -0.547457       -14.8971
 159   2.0000      -0.543422       -14.7873
 160   2.0000      -0.541776       -14.7425
 161   2.0000      -0.538353       -14.6493
 162   2.0000      -0.536481       -14.5984
 163   2.0000      -0.535976       -14.5847
 164   2.0000      -0.534228       -14.5371
 165   2.0000      -0.533821       -14.5260
 166   2.0000      -0.530505       -14.4358
 167   2.0000      -0.527648       -14.3580
 168   2.0000      -0.525950       -14.3118
 169   2.0000      -0.523731       -14.2515
 170   2.0000      -0.518694       -14.1144
 171   2.0000      -0.516063       -14.0428
 172   2.0000      -0.514907       -14.0113
 173   2.0000      -0.513106       -13.9623
 174   2.0000      -0.509705       -13.8698
 175   2.0000      -0.508353       -13.8330
 176   2.0000      -0.505555       -13.7568
 177   2.0000      -0.504619       -13.7314
 178   2.0000      -0.501149       -13.6369
 179   2.0000      -0.497303       -13.5323
 180   2.0000      -0.494920       -13.4675
 181   2.0000      -0.489689       -13.3251
 182   2.0000      -0.487638       -13.2693
 183   2.0000      -0.484340       -13.1796
 184   2.0000      -0.482917       -13.1408
 185   2.0000      -0.480607       -13.0780
 186   2.0000      -0.476516       -12.9667
 187   2.0000      -0.472667       -12.8619
 188   2.0000      -0.471352       -12.8261
 189   2.0000      -0.469747       -12.7825
 190   2.0000      -0.469161       -12.7665
 191   2.0000      -0.467453       -12.7200
 192   2.0000      -0.465400       -12.6642
 193   2.0000      -0.462239       -12.5782
 194   2.0000      -0.460600       -12.5336
 195   2.0000      -0.460386       -12.5277
 196   2.0000      -0.457648       -12.4532
 197   2.0000      -0.456175       -12.4131
 198   2.0000      -0.455287       -12.3890
 199   2.0000      -0.454724       -12.3737
 200   2.0000      -0.450170       -12.2498
 201   2.0000      -0.445584       -12.1250
 202   2.0000      -0.444536       -12.0965
 203   2.0000      -0.443352       -12.0642
 204   2.0000      -0.440563       -11.9883
 205   2.0000      -0.437879       -11.9153
 206   2.0000      -0.435095       -11.8395
 207   2.0000      -0.433902       -11.8071
 208   2.0000      -0.431166       -11.7326
 209   2.0000      -0.430576       -11.7166
 210   2.0000      -0.418907       -11.3990
 211   2.0000      -0.416424       -11.3315
 212   2.0000      -0.407436       -11.0869
 213   2.0000      -0.400983       -10.9113
 214   2.0000      -0.392306       -10.6752
 215   2.0000      -0.383481       -10.4351
 216   2.0000      -0.380572       -10.3559
 217   2.0000      -0.374178       -10.1819
 218   2.0000      -0.370085       -10.0705
 219   2.0000      -0.366820        -9.9817
 220   2.0000      -0.361974        -9.8498
 221   2.0000      -0.356763        -9.7080
 222   2.0000      -0.349769        -9.5177
 223   2.0000      -0.344624        -9.3777
 224   2.0000      -0.333859        -9.0848
 225   2.0000      -0.326249        -8.8777
 226   2.0000      -0.307246        -8.3606
 227   2.0000      -0.277905        -7.5622
 228   0.0000      -0.081178        -2.2090
 229   0.0000      -0.071628        -1.9491
 230   0.0000      -0.013318        -0.3624
 231   0.0000      -0.012245        -0.3332
 232   0.0000      -0.007923        -0.2156

MULLIKEN ATOMIC CHARGES
-----------------------
   0 C :    0.135800
   1 C :   -0.070482
   2 C :   -0.005466
   3 C :   -0.024340
   4 C :    0.047282
   5 C :    0.027373
   6 N :   -0.309372
   7 S :    0.539582
   8 N :   -0.316673
   9 C :    0.158415
  10 C :   -0.336170
  11 C :   -0.080760
  12 C :   -0.086806
  13 N :    0.083125
  14 N :    0.098038
  15 C :    0.110590
  16 C :   -0.072869
  17 C :   -0.005747
  18 C :    0.000323
  19 C :    0.057157
  20 C :    0.040305
  21 N :   -0.314714
  22 S :    0.556705
  23 N :   -0.324116
  24 C :    0.123979
  25 C :   -0.302078
  26 C :   -0.085327
  27 C :   -0.090546
  28 N :    0.075606
  29 N :    0.111606
  30 C :   -0.126899
  31 C :    0.021378
  32 C :   -0.012814
  33 C :   -0.057751
  34 S :    0.093406
  35 C :    0.106337
  36 C :   -0.039718
  37 C :   -0.047380
  38 C :    0.035761
  39 C :    0.025043
  40 C :   -0.072516
  41 C :   -0.036652
  42 C :    0.027379
  43 C :    0.003474
  44 S :    0.126723
  45 C :   -0.122417
  46 C :   -0.009013
  47 C :    0.030130
  48 C :    0.029135
  49 C :   -0.020722
  50 C :   -0.016572
  51 C :   -0.057850
  52 C :   -0.025591
  53 C :   -0.025044
  54 C :   -0.017650
  55 C :   -0.016969
  56 C :   -0.061032
  57 C :   -0.023355
  58 C :   -0.024528
  59 C :    0.013734
  60 C :   -0.023377
  61 C :    0.015497
  62 C :   -0.021675
  63 H :    0.029474
  64 H :    0.035758
  65 H :    0.044823
  66 H :    0.025459
  67 H :    0.020770
  68 H :    0.037353
  69 H :    0.029368
  70 H :    0.014638
  71 H :    0.016324
  72 H :    0.002946
  73 H :   -0.016202
  74 H :    0.018448
  75 H :    0.011748
  76 H :   -0.004682
  77 H :   -0.003702
  78 H :    0.013460
  79 H :    0.010316
  80 H :   -0.002722
  81 H :   -0.005656
  82 H :    0.013393
  83 H :    0.029906
  84 H :    0.028268
  85 H :    0.026938
  86 H :    0.037786
  87 H :    0.026726
  88 H :    0.026911
  89 H :    0.029699
  90 H :    0.026004
  91 H :    0.038389
  92 H :    0.029165
Sum of atomic charges:   -0.0000000

LOEWDIN ATOMIC CHARGES
----------------------
   0 C :   -0.006379
   1 C :   -0.031691
   2 C :    0.032952
   3 C :   -0.073130
   4 C :   -0.033371
   5 C :   -0.043134
   6 N :   -0.288811
   7 S :    0.651419
   8 N :   -0.275380
   9 C :    0.091025
  10 C :   -0.131876
  11 C :   -0.017443
  12 C :   -0.015876
  13 N :   -0.048097
  14 N :   -0.046114
  15 C :   -0.010208
  16 C :   -0.037345
  17 C :    0.020986
  18 C :   -0.065483
  19 C :   -0.037643
  20 C :   -0.039620
  21 N :   -0.260387
  22 S :    0.665965
  23 N :   -0.278393
  24 C :    0.076636
  25 C :   -0.116431
  26 C :   -0.016371
  27 C :   -0.019293
  28 N :   -0.047854
  29 N :   -0.052442
  30 C :   -0.181858
  31 C :   -0.024882
  32 C :   -0.062512
  33 C :   -0.142765
  34 S :    0.436701
  35 C :   -0.041755
  36 C :   -0.020352
  37 C :   -0.019033
  38 C :   -0.030459
  39 C :    0.015470
  40 C :   -0.001935
  41 C :   -0.167058
  42 C :   -0.036503
  43 C :   -0.020315
  44 S :    0.430287
  45 C :   -0.170047
  46 C :   -0.018212
  47 C :   -0.016037
  48 C :   -0.016614
  49 C :   -0.026342
  50 C :   -0.027927
  51 C :   -0.023261
  52 C :   -0.025936
  53 C :   -0.018333
  54 C :   -0.020982
  55 C :   -0.025063
  56 C :   -0.022620
  57 C :   -0.027533
  58 C :   -0.025249
  59 C :   -0.032657
  60 C :   -0.052823
  61 C :   -0.032775
  62 C :   -0.052521
  63 H :    0.032211
  64 H :    0.045675
  65 H :    0.058645
  66 H :    0.029849
  67 H :    0.041180
  68 H :    0.054516
  69 H :    0.034915
  70 H :    0.033597
  71 H :    0.024870
  72 H :    0.034442
  73 H :    0.031028
  74 H :    0.034580
  75 H :    0.030703
  76 H :    0.027639
  77 H :    0.027900
  78 H :    0.030917
  79 H :    0.031698
  80 H :    0.028444
  81 H :    0.027340
  82 H :    0.029315
  83 H :    0.029385
  84 H :    0.028675
  85 H :    0.024442
  86 H :    0.025526
  87 H :    0.024729
  88 H :    0.028285
  89 H :    0.029494
  90 H :    0.024590
  91 H :    0.025715
  92 H :    0.025388

  Mayer bond orders larger than 0.100000
B(  0-C ,  1-C ) :   1.4410 B(  0-C ,  5-C ) :   1.1882 B(  0-C , 30-C ) :   1.1410
B(  1-C ,  2-C ) :   1.3011 B(  1-C , 63-H ) :   0.9868 B(  2-C ,  3-C ) :   1.4260
B(  2-C , 64-H ) :   0.9766 B(  3-C ,  4-C ) :   1.1714 B(  3-C ,  9-C ) :   1.1264
B(  4-C ,  5-C ) :   1.1629 B(  4-C ,  6-N ) :   1.5512 B(  5-C ,  8-N ) :   1.5154
B(  6-N ,  7-S ) :   1.2665 B(  6-N ,  8-N ) :   0.1466 B(  7-S ,  8-N ) :   1.2771
B(  9-C , 10-C ) :   1.7081 B(  9-C , 65-H ) :   0.9544 B( 10-C , 11-C ) :   1.0930
B( 10-C , 12-C ) :   1.0858 B( 11-C , 13-N ) :   3.0387 B( 12-C , 14-N ) :   2.9759
B( 15-C , 16-C ) :   1.4540 B( 15-C , 20-C ) :   1.1885 B( 15-C , 45-C ) :   1.1405
B( 16-C , 17-C ) :   1.2759 B( 16-C , 66-H ) :   0.9867 B( 17-C , 18-C ) :   1.4309
B( 17-C , 67-H ) :   0.9956 B( 18-C , 19-C ) :   1.1835 B( 18-C , 24-C ) :   1.0841
B( 19-C , 20-C ) :   1.1632 B( 19-C , 21-N ) :   1.5011 B( 20-C , 23-N ) :   1.5134
B( 21-N , 22-S ) :   1.2818 B( 21-N , 23-N ) :   0.1445 B( 22-S , 23-N ) :   1.2766
B( 24-C , 25-C ) :   1.7586 B( 24-C , 68-H ) :   0.9566 B( 25-C , 26-C ) :   1.0894
B( 25-C , 27-C ) :   1.0898 B( 26-C , 28-N ) :   3.0376 B( 27-C , 29-N ) :   3.0337
B( 30-C , 31-C ) :   1.5124 B( 30-C , 34-S ) :   1.1034 B( 31-C , 32-C ) :   1.2635
B( 31-C , 69-H ) :   0.9821 B( 32-C , 33-C ) :   1.5172 B( 32-C , 70-H ) :   0.9921
B( 33-C , 34-S ) :   1.1434 B( 33-C , 35-C ) :   1.0569 B( 35-C , 36-C ) :   1.3520
B( 35-C , 40-C ) :   1.3145 B( 36-C , 37-C ) :   1.4133 B( 36-C , 71-H ) :   0.9810
B( 37-C , 38-C ) :   1.3461 B( 37-C , 72-H ) :   0.9980 B( 38-C , 39-C ) :   1.3663
B( 38-C , 41-C ) :   1.0728 B( 39-C , 40-C ) :   1.4552 B( 39-C , 43-C ) :   0.9288
B( 40-C , 73-H ) :   0.9975 B( 41-C , 42-C ) :   1.5316 B( 41-C , 44-S ) :   1.1115
B( 42-C , 43-C ) :   0.9497 B( 42-C , 46-C ) :   1.2933 B( 43-C , 47-C ) :   0.9337
B( 43-C , 48-C ) :   0.9382 B( 44-S , 45-C ) :   1.0937 B( 45-C , 46-C ) :   1.4862
B( 46-C , 74-H ) :   0.9912 B( 47-C , 49-C ) :   1.4341 B( 47-C , 53-C ) :   1.3863
B( 48-C , 54-C ) :   1.4216 B( 48-C , 58-C ) :   1.4006 B( 49-C , 50-C ) :   1.3708
B( 49-C , 75-H ) :   0.9837 B( 50-C , 51-C ) :   1.4065 B( 50-C , 76-H ) :   0.9918
B( 51-C , 52-C ) :   1.3782 B( 51-C , 59-C ) :   1.0219 B( 52-C , 53-C ) :   1.4044
B( 52-C , 77-H ) :   0.9955 B( 53-C , 78-H ) :   0.9953 B( 54-C , 55-C ) :   1.3841
B( 54-C , 79-H ) :   0.9865 B( 55-C , 56-C ) :   1.3931 B( 55-C , 80-H ) :   0.9928
B( 56-C , 57-C ) :   1.3915 B( 56-C , 61-C ) :   1.0241 B( 57-C , 58-C ) :   1.3939
B( 57-C , 81-H ) :   0.9937 B( 58-C , 82-H ) :   0.9863 B( 59-C , 60-C ) :   1.0853
B( 59-C , 83-H ) :   0.9458 B( 59-C , 84-H ) :   0.9469 B( 60-C , 85-H ) :   0.9739
B( 60-C , 86-H ) :   0.9737 B( 60-C , 87-H ) :   0.9728 B( 61-C , 62-C ) :   1.0852
B( 61-C , 88-H ) :   0.9458 B( 61-C , 89-H ) :   0.9455 B( 62-C , 90-H ) :   0.9731
B( 62-C , 91-H ) :   0.9735 B( 62-C , 92-H ) :   0.9734

-----------------------------------------------------------------------------
         ABSORPTION SPECTRUM VIA TRANSITION ELECTRIC DIPOLE MOMENTS
-----------------------------------------------------------------------------
State   Energy  Wavelength   fosc         T2         TX        TY        TZ
        (cm-1)    (nm)                  (au**2)     (au)      (au)      (au)
-----------------------------------------------------------------------------
   0   19737.5    506.6   2.853550911  47.59579  -4.55584  -4.56315   2.45312
   1   23836.8    419.5   0.138803818   1.91703   0.10629  -1.10163  -0.83195
   2   32405.9    308.6   0.053480135   0.54331  -0.18490   0.67461   0.23242
   3   33632.4    297.3   0.046136507   0.45161  -0.30925  -0.42204   0.42173
   4   35911.9    278.5   0.396219355   3.63223  -1.53935  -0.93521   0.62292
   5   37092.4    269.6   0.079253977   0.70341   0.06759  -0.55032  -0.62928
   6   38428.2    260.2   0.097122843   0.83205   0.79179  -0.19607  -0.40826
   7   38661.9    258.7   0.094512711   0.80479   0.60455   0.64828   0.13801

Dispersion correction           -0.055117462
FINAL SINGLE POINT ENERGY     -3989.225652315536

DIPOLE MOMENT
-------------
                                X             Y             Z
Electronic contribution:     40.87142     -20.34168     -21.17495
Nuclear contribution   :    -41.42826      21.90635      23.31071
                        -----------------------------------------
Total Dipole Moment    :     -0.55685       1.56466       2.13576
                        -----------------------------------------
Magnitude (a.u.)       :      2.70550
Magnitude (Debye)      :      6.87683

Rotational constants in cm-1:     0.002154     0.000356     0.000336
Rotational constants in MHz :    64.569758    10.667133    10.072794

                             ****ORCA TERMINATED NORMALLY****
TOTAL RUN TIME: 0 days 0 hours 14 minutes 33 seconds 396 msec
