                         Program Version 4.2.0 -  RELEASE  -
|  1> # ORCA input file
|  2> # SCF done       -198.234240057903          0.000452198354
|  3> ! wb97x-d3 def2-SVP def2/J RIJCOSX Grid4 TightSCF
|  4> %maxcore 5000
|  5> %tddft
|  6>     Mode sTDDFT
|  7>     Ethresh 5.0
|  8>     maxcore 5000
|  9> end
| 10>
| 11> %pal
| 12>   nprocs 6
| 13>   end
| 14> * xyz 0 1
| 15>    C       -0.60368        -2.51124        -0.56097
| 16>    C       -0.99425        -1.18221        -0.30190
| 17>    S       -2.66964        -1.01517         0.17607
| 18>    C       -2.84070        -2.72493         0.02517
| 19>    C       -1.66696        -3.39946        -0.35864
| 20>    N       -1.92458        -4.74900        -0.44064
| 21>    C       -1.16176        -5.67204        -1.26065
| 22>    C       -3.25810        -4.93474        -0.13147
| 23>    C       -3.86497        -3.67414         0.12498
| 24>    C       -5.26743        -3.55550         0.24604
| 25>    N       -5.99106        -2.46792         0.46144
| 26>    S       -7.55669        -2.86269         0.36372
| 27>    N       -7.37744        -4.43535         0.04127
| 28>    C       -6.08360        -4.71516         0.00460
| 29>    C       -5.45773        -5.96798        -0.17774
| 30>    C       -4.05364        -6.09788        -0.10382
| 31>    N       -3.68457        -7.46238        -0.12730
| 32>    C       -3.01108        -8.00681         1.06678
| 33>    C       -1.58956        -7.54549         1.31857
| 34>    C       -4.88060        -8.14864        -0.38724
| 35>    C       -5.96570        -7.26763        -0.38990
| 36>    S       -7.50612        -8.00392        -0.64537
| 37>    C       -6.69870        -9.54136        -0.76506
| 38>    C       -5.28712        -9.46796        -0.61638
| 39>    C        0.29368        -5.82936        -0.83077
| 40>    C       -7.83743       -14.55054        -1.66542
| 41>    C       -7.32294       -15.82608        -1.70306
| 42>    C       -8.12767       -16.99669        -2.00828
| 43>    C       -9.39954       -17.02634        -2.51948
| 44>    C      -10.11076       -18.21413        -2.79423
| 45>    N      -10.74953       -19.13687        -3.03582
| 46>    C      -10.18162       -15.90957        -2.88531
| 47>    N      -10.88435       -15.07004        -3.23300
| 48>    C       -7.31382       -18.18039        -1.73766
| 49>    C       -7.60145       -19.53379        -1.80144
| 50>    C       -6.59847       -20.44422        -1.48519
| 51>   Cl       -6.94834       -22.12453        -1.55646
| 52>    C       -5.32036       -20.01613        -1.11223
| 53>    C       -5.02966       -18.65955        -1.04585
| 54>    C       -6.02964       -17.76137        -1.35654
| 55>    C       -5.96685       -16.28405        -1.34680
| 56>    O       -4.97579       -15.63250        -1.07729
| 57>    N       -4.73923       -10.71173        -0.78852
| 58>    C       -5.77532       -11.58199        -1.01895
| 59>    C       -7.00822       -10.87510        -1.00871
| 60>    C       -3.34668       -11.08580        -0.83380
| 61>    C       -2.92704       -11.87552         0.40475
| 62>    C       -5.90369       -12.93964        -1.25473
| 63>    C       -7.23398       -13.31071        -1.41845
| 64>    S       -8.33543       -11.91964        -1.29877
| 65>   Cl       -4.10455       -21.16839        -0.73195
| 66>    C        4.02191        -1.89467        -1.87856
| 67>    O        3.34621        -2.90772        -1.82032
| 68>    C        5.43536        -1.81770        -2.29897
| 69>    C        6.26890        -2.83655        -2.71014
| 70>    C        7.57481        -2.51643        -3.06067
| 71>    C        8.01759        -1.19171        -2.99272
| 72>   Cl        9.63411        -0.80877        -3.42893
| 73>    C        7.17206        -0.16807        -2.57644
| 74>    C        5.86996        -0.48313        -2.22652
| 75>    C        4.76052         0.34824        -1.75835
| 76>    C        4.82646         1.70308        -1.55146
| 77>    C        3.77425         2.52205        -1.09214
| 78>    N        2.97268         3.25762        -0.72117
| 79>    C        5.98341         2.48069        -1.76998
| 80>    N        6.88518         3.17374        -1.92568
| 81>    C        3.62286        -0.52505        -1.55439
| 82>    C        2.37746        -0.11700        -1.13317
| 83>   Cl        8.64569        -3.75525        -3.57885
| 84>    C        0.00755        -0.23899        -0.47049
| 85>    C        1.20894        -0.83983        -0.88900
| 86>    S        1.04822        -2.58853        -1.05045
| 87>    C       -0.22003         1.22471        -0.28168
| 88>    C       -0.55837         1.89760        -1.61500
| 89>    H       -1.68467        -6.62829        -1.22276
| 90>    H       -1.18925        -5.31576        -2.29816
| 91>    H       -3.62385        -7.75595         1.94477
| 92>    H       -3.02084        -9.09064         0.95711
| 93>    H       -1.54157        -6.46594         1.41714
| 94>    H       -1.25287        -7.98591         2.25447
| 95>    H       -0.92161        -7.87595         0.52976
| 96>    H        0.38525        -5.88316         0.24958
| 97>    H        0.69826        -6.74122        -1.26200
| 98>    H        0.89962        -5.00059        -1.18081
| 99>    H       -8.90572       -14.47211        -1.82906
|100>    H       -8.57372       -19.90343        -2.08201
|101>    H       -4.04927       -18.31414        -0.75830
|102>    H       -3.18846       -11.70270        -1.72447
|103>    H       -2.75281       -10.17518        -0.93992
|104>    H       -3.12488       -11.31245         1.31459
|105>    H       -3.47580       -12.81182         0.45745
|106>    H       -1.86498       -12.09891         0.35621
|107>    H       -5.10232       -13.65219        -1.30433
|108>    H        5.91400        -3.85381        -2.75768
|109>    H        7.55080         0.83987        -2.53775
|110>    H        2.26578         0.94427        -0.95897
|111>    H       -1.05915         1.35413         0.40482
|112>    H        0.65618         1.70615         0.15468
|113>    H       -1.45514         1.45689        -2.04426
|114>    H       -0.73092         2.95826        -1.45766
|115>    H        0.25920         1.78261        -2.32278
|116> *
|117>
|118>                          ****END OF INPUT****

CARTESIAN COORDINATES (ANGSTROEM)
---------------------------------
  C     -0.603680   -2.511240   -0.560970
  C     -0.994250   -1.182210   -0.301900
  S     -2.669640   -1.015170    0.176070
  C     -2.840700   -2.724930    0.025170
  C     -1.666960   -3.399460   -0.358640
  N     -1.924580   -4.749000   -0.440640
  C     -1.161760   -5.672040   -1.260650
  C     -3.258100   -4.934740   -0.131470
  C     -3.864970   -3.674140    0.124980
  C     -5.267430   -3.555500    0.246040
  N     -5.991060   -2.467920    0.461440
  S     -7.556690   -2.862690    0.363720
  N     -7.377440   -4.435350    0.041270
  C     -6.083600   -4.715160    0.004600
  C     -5.457730   -5.967980   -0.177740
  C     -4.053640   -6.097880   -0.103820
  N     -3.684570   -7.462380   -0.127300
  C     -3.011080   -8.006810    1.066780
  C     -1.589560   -7.545490    1.318570
  C     -4.880600   -8.148640   -0.387240
  C     -5.965700   -7.267630   -0.389900
  S     -7.506120   -8.003920   -0.645370
  C     -6.698700   -9.541360   -0.765060
  C     -5.287120   -9.467960   -0.616380
  C      0.293680   -5.829360   -0.830770
  C     -7.837430  -14.550540   -1.665420
  C     -7.322940  -15.826080   -1.703060
  C     -8.127670  -16.996690   -2.008280
  C     -9.399540  -17.026340   -2.519480
  C    -10.110760  -18.214130   -2.794230
  N    -10.749530  -19.136870   -3.035820
  C    -10.181620  -15.909570   -2.885310
  N    -10.884350  -15.070040   -3.233000
  C     -7.313820  -18.180390   -1.737660
  C     -7.601450  -19.533790   -1.801440
  C     -6.598470  -20.444220   -1.485190
  Cl    -6.948340  -22.124530   -1.556460
  C     -5.320360  -20.016130   -1.112230
  C     -5.029660  -18.659550   -1.045850
  C     -6.029640  -17.761370   -1.356540
  C     -5.966850  -16.284050   -1.346800
  O     -4.975790  -15.632500   -1.077290
  N     -4.739230  -10.711730   -0.788520
  C     -5.775320  -11.581990   -1.018950
  C     -7.008220  -10.875100   -1.008710
  C     -3.346680  -11.085800   -0.833800
  C     -2.927040  -11.875520    0.404750
  C     -5.903690  -12.939640   -1.254730
  C     -7.233980  -13.310710   -1.418450
  S     -8.335430  -11.919640   -1.298770
  Cl    -4.104550  -21.168390   -0.731950
  C      4.021910   -1.894670   -1.878560
  O      3.346210   -2.907720   -1.820320
  C      5.435360   -1.817700   -2.298970
  C      6.268900   -2.836550   -2.710140
  C      7.574810   -2.516430   -3.060670
  C      8.017590   -1.191710   -2.992720
  Cl     9.634110   -0.808770   -3.428930
  C      7.172060   -0.168070   -2.576440
  C      5.869960   -0.483130   -2.226520
  C      4.760520    0.348240   -1.758350
  C      4.826460    1.703080   -1.551460
  C      3.774250    2.522050   -1.092140
  N      2.972680    3.257620   -0.721170
  C      5.983410    2.480690   -1.769980
  N      6.885180    3.173740   -1.925680
  C      3.622860   -0.525050   -1.554390
  C      2.377460   -0.117000   -1.133170
  Cl     8.645690   -3.755250   -3.578850
  C      0.007550   -0.238990   -0.470490
  C      1.208940   -0.839830   -0.889000
  S      1.048220   -2.588530   -1.050450
  C     -0.220030    1.224710   -0.281680
  C     -0.558370    1.897600   -1.615000
  H     -1.684670   -6.628290   -1.222760
  H     -1.189250   -5.315760   -2.298160
  H     -3.623850   -7.755950    1.944770
  H     -3.020840   -9.090640    0.957110
  H     -1.541570   -6.465940    1.417140
  H     -1.252870   -7.985910    2.254470
  H     -0.921610   -7.875950    0.529760
  H      0.385250   -5.883160    0.249580
  H      0.698260   -6.741220   -1.262000
  H      0.899620   -5.000590   -1.180810
  H     -8.905720  -14.472110   -1.829060
  H     -8.573720  -19.903430   -2.082010
  H     -4.049270  -18.314140   -0.758300
  H     -3.188460  -11.702700   -1.724470
  H     -2.752810  -10.175180   -0.939920
  H     -3.124880  -11.312450    1.314590
  H     -3.475800  -12.811820    0.457450
  H     -1.864980  -12.098910    0.356210
  H     -5.102320  -13.652190   -1.304330
  H      5.914000   -3.853810   -2.757680
  H      7.550800    0.839870   -2.537750
  H      2.265780    0.944270   -0.958970
  H     -1.059150    1.354130    0.404820
  H      0.656180    1.706150    0.154680
  H     -1.455140    1.456890   -2.044260
  H     -0.730920    2.958260   -1.457660
  H      0.259200    1.782610   -2.322780

 Total Charge           Charge          ....    0
 Multiplicity           Mult            ....    1
 Number of Electrons    NEL             ....  578
 Basis Dimension        Dim             .... 1207

ORBITAL ENERGIES
----------------

  NO   OCC          E(Eh)            E(eV)
   0   2.0000    -101.628432     -2765.4502
   1   2.0000    -101.626185     -2765.3891
   2   2.0000    -101.625952     -2765.3828
   3   2.0000    -101.623692     -2765.3213
   4   2.0000     -89.040236     -2422.9080
   5   2.0000     -88.994957     -2421.6759
   6   2.0000     -88.994885     -2421.6739
   7   2.0000     -88.994380     -2421.6602
   8   2.0000     -88.993145     -2421.6266
   9   2.0000     -19.263605      -524.1893
  10   2.0000     -19.260529      -524.1056
  11   2.0000     -14.524928      -395.2434
  12   2.0000     -14.521903      -395.1611
  13   2.0000     -14.513215      -394.9247
  14   2.0000     -14.478370      -393.9765
  15   2.0000     -14.476019      -393.9125
  16   2.0000     -14.458673      -393.4405
  17   2.0000     -14.451454      -393.2440
  18   2.0000     -14.451190      -393.2369
  19   2.0000     -14.448503      -393.1638
  20   2.0000     -10.410874      -283.2943
  21   2.0000     -10.410055      -283.2720
  22   2.0000     -10.394255      -282.8420
  23   2.0000     -10.393743      -282.8281
  24   2.0000     -10.391604      -282.7699
  25   2.0000     -10.391110      -282.7565
  26   2.0000     -10.384293      -282.5710
  27   2.0000     -10.380311      -282.4626
  28   2.0000     -10.379967      -282.4533
  29   2.0000     -10.377011      -282.3728
  30   2.0000     -10.376725      -282.3650
  31   2.0000     -10.373385      -282.2741
  32   2.0000     -10.373027      -282.2644
  33   2.0000     -10.372526      -282.2508
  34   2.0000     -10.369923      -282.1800
  35   2.0000     -10.364095      -282.0214
  36   2.0000     -10.363364      -282.0015
  37   2.0000     -10.362778      -281.9855
  38   2.0000     -10.362592      -281.9805
  39   2.0000     -10.362118      -281.9676
  40   2.0000     -10.361798      -281.9588
  41   2.0000     -10.361063      -281.9388
  42   2.0000     -10.360075      -281.9120
  43   2.0000     -10.359346      -281.8921
  44   2.0000     -10.356806      -281.8230
  45   2.0000     -10.355265      -281.7811
  46   2.0000     -10.353694      -281.7383
  47   2.0000     -10.352928      -281.7175
  48   2.0000     -10.352639      -281.7096
  49   2.0000     -10.352573      -281.7078
  50   2.0000     -10.352104      -281.6951
  51   2.0000     -10.350960      -281.6639
  52   2.0000     -10.350164      -281.6423
  53   2.0000     -10.349826      -281.6331
  54   2.0000     -10.349566      -281.6260
  55   2.0000     -10.348594      -281.5996
  56   2.0000     -10.346496      -281.5425
  57   2.0000     -10.346358      -281.5387
  58   2.0000     -10.346025      -281.5297
  59   2.0000     -10.345502      -281.5154
  60   2.0000     -10.343746      -281.4676
  61   2.0000     -10.342797      -281.4418
  62   2.0000     -10.340577      -281.3814
  63   2.0000     -10.338300      -281.3194
  64   2.0000     -10.335153      -281.2338
  65   2.0000     -10.333629      -281.1923
  66   2.0000     -10.332732      -281.1679
  67   2.0000     -10.332485      -281.1612
  68   2.0000     -10.331794      -281.1424
  69   2.0000     -10.320066      -280.8233
  70   2.0000     -10.319496      -280.8078
  71   2.0000     -10.318233      -280.7734
  72   2.0000     -10.312136      -280.6075
  73   2.0000     -10.298994      -280.2499
  74   2.0000      -9.605214      -261.3712
  75   2.0000      -9.602911      -261.3085
  76   2.0000      -9.602733      -261.3037
  77   2.0000      -9.600438      -261.2412
  78   2.0000      -8.151281      -221.8076
  79   2.0000      -8.108237      -220.6364
  80   2.0000      -8.107640      -220.6201
  81   2.0000      -8.106111      -220.5785
  82   2.0000      -8.105253      -220.5551
  83   2.0000      -7.365228      -200.4180
  84   2.0000      -7.362923      -200.3553
  85   2.0000      -7.362750      -200.3506
  86   2.0000      -7.360483      -200.2889
  87   2.0000      -7.355246      -200.1464
  88   2.0000      -7.354602      -200.1289
  89   2.0000      -7.352950      -200.0840
  90   2.0000      -7.352767      -200.0790
  91   2.0000      -7.352312      -200.0666
  92   2.0000      -7.352106      -200.0610
  93   2.0000      -7.350461      -200.0162
  94   2.0000      -7.349799      -199.9982
  95   2.0000      -6.112999      -166.3432
  96   2.0000      -6.105115      -166.1286
  97   2.0000      -6.103152      -166.0752
  98   2.0000      -6.068040      -165.1198
  99   2.0000      -6.067786      -165.1129
 100   2.0000      -6.066134      -165.0679
 101   2.0000      -6.065346      -165.0465
 102   2.0000      -6.063994      -165.0097
 103   2.0000      -6.063678      -165.0011
 104   2.0000      -6.062182      -164.9603
 105   2.0000      -6.060685      -164.9196
 106   2.0000      -6.059826      -164.8963
 107   2.0000      -6.058690      -164.8653
 108   2.0000      -6.057217      -164.8252
 109   2.0000      -6.056874      -164.8159
 110   2.0000      -1.181144       -32.1406
 111   2.0000      -1.176977       -32.0272
 112   2.0000      -1.162464       -31.6323
 113   2.0000      -1.154840       -31.4248
 114   2.0000      -1.150320       -31.3018
 115   2.0000      -1.133405       -30.8415
 116   2.0000      -1.072290       -29.1785
 117   2.0000      -1.069439       -29.1009
 118   2.0000      -1.058325       -28.7985
 119   2.0000      -1.054620       -28.6977
 120   2.0000      -1.053519       -28.6677
 121   2.0000      -1.036665       -28.2091
 122   2.0000      -1.032393       -28.0928
 123   2.0000      -1.032161       -28.0865
 124   2.0000      -1.031129       -28.0584
 125   2.0000      -1.027265       -27.9533
 126   2.0000      -1.022391       -27.8207
 127   2.0000      -1.017046       -27.6752
 128   2.0000      -1.004441       -27.3322
 129   2.0000      -1.000524       -27.2256
 130   2.0000      -0.998121       -27.1602
 131   2.0000      -0.993370       -27.0310
 132   2.0000      -0.973616       -26.4934
 133   2.0000      -0.972850       -26.4726
 134   2.0000      -0.958204       -26.0741
 135   2.0000      -0.948289       -25.8042
 136   2.0000      -0.939868       -25.5751
 137   2.0000      -0.938835       -25.5470
 138   2.0000      -0.933940       -25.4138
 139   2.0000      -0.927432       -25.2367
 140   2.0000      -0.913723       -24.8637
 141   2.0000      -0.911677       -24.8080
 142   2.0000      -0.901791       -24.5390
 143   2.0000      -0.901388       -24.5280
 144   2.0000      -0.898636       -24.4531
 145   2.0000      -0.897472       -24.4215
 146   2.0000      -0.886305       -24.1176
 147   2.0000      -0.875333       -23.8190
 148   2.0000      -0.871434       -23.7129
 149   2.0000      -0.858853       -23.3706
 150   2.0000      -0.853804       -23.2332
 151   2.0000      -0.841116       -22.8879
 152   2.0000      -0.838281       -22.8108
 153   2.0000      -0.824440       -22.4342
 154   2.0000      -0.809419       -22.0254
 155   2.0000      -0.805447       -21.9173
 156   2.0000      -0.798760       -21.7354
 157   2.0000      -0.791187       -21.5293
 158   2.0000      -0.785029       -21.3617
 159   2.0000      -0.781409       -21.2632
 160   2.0000      -0.774618       -21.0784
 161   2.0000      -0.762709       -20.7544
 162   2.0000      -0.759542       -20.6682
 163   2.0000      -0.751870       -20.4594
 164   2.0000      -0.743091       -20.2205
 165   2.0000      -0.737866       -20.0784
 166   2.0000      -0.735836       -20.0231
 167   2.0000      -0.731075       -19.8936
 168   2.0000      -0.725520       -19.7424
 169   2.0000      -0.722994       -19.6737
 170   2.0000      -0.706783       -19.2325
 171   2.0000      -0.700764       -19.0688
 172   2.0000      -0.696799       -18.9609
 173   2.0000      -0.690263       -18.7830
 174   2.0000      -0.687093       -18.6967
 175   2.0000      -0.676432       -18.4067
 176   2.0000      -0.667624       -18.1670
 177   2.0000      -0.667091       -18.1525
 178   2.0000      -0.659844       -17.9553
 179   2.0000      -0.657308       -17.8862
 180   2.0000      -0.654735       -17.8162
 181   2.0000      -0.649706       -17.6794
 182   2.0000      -0.646589       -17.5946
 183   2.0000      -0.638202       -17.3664
 184   2.0000      -0.629614       -17.1327
 185   2.0000      -0.624846       -17.0029
 186   2.0000      -0.624648       -16.9975
 187   2.0000      -0.623156       -16.9569
 188   2.0000      -0.619234       -16.8502
 189   2.0000      -0.608998       -16.5717
 190   2.0000      -0.607951       -16.5432
 191   2.0000      -0.606733       -16.5100
 192   2.0000      -0.600874       -16.3506
 193   2.0000      -0.596443       -16.2300
 194   2.0000      -0.591458       -16.0944
 195   2.0000      -0.588937       -16.0258
 196   2.0000      -0.587443       -15.9851
 197   2.0000      -0.586582       -15.9617
 198   2.0000      -0.585439       -15.9306
 199   2.0000      -0.584512       -15.9054
 200   2.0000      -0.582343       -15.8464
 201   2.0000      -0.581042       -15.8109
 202   2.0000      -0.580017       -15.7831
 203   2.0000      -0.575062       -15.6482
 204   2.0000      -0.572627       -15.5820
 205   2.0000      -0.569707       -15.5025
 206   2.0000      -0.566067       -15.4035
 207   2.0000      -0.563069       -15.3219
 208   2.0000      -0.560486       -15.2516
 209   2.0000      -0.555829       -15.1249
 210   2.0000      -0.552451       -15.0330
 211   2.0000      -0.549750       -14.9595
 212   2.0000      -0.548537       -14.9265
 213   2.0000      -0.547340       -14.8939
 214   2.0000      -0.545008       -14.8304
 215   2.0000      -0.543964       -14.8020
 216   2.0000      -0.540092       -14.6966
 217   2.0000      -0.537353       -14.6221
 218   2.0000      -0.533742       -14.5239
 219   2.0000      -0.532386       -14.4870
 220   2.0000      -0.528304       -14.3759
 221   2.0000      -0.527803       -14.3622
 222   2.0000      -0.525613       -14.3027
 223   2.0000      -0.523181       -14.2365
 224   2.0000      -0.517242       -14.0749
 225   2.0000      -0.516035       -14.0420
 226   2.0000      -0.513955       -13.9854
 227   2.0000      -0.512181       -13.9372
 228   2.0000      -0.509453       -13.8629
 229   2.0000      -0.507664       -13.8143
 230   2.0000      -0.504422       -13.7260
 231   2.0000      -0.502946       -13.6859
 232   2.0000      -0.502597       -13.6763
 233   2.0000      -0.499413       -13.5897
 234   2.0000      -0.496411       -13.5080
 235   2.0000      -0.491371       -13.3709
 236   2.0000      -0.490094       -13.3361
 237   2.0000      -0.490006       -13.3337
 238   2.0000      -0.488291       -13.2871
 239   2.0000      -0.485532       -13.2120
 240   2.0000      -0.483365       -13.1530
 241   2.0000      -0.482517       -13.1299
 242   2.0000      -0.481111       -13.0917
 243   2.0000      -0.480708       -13.0807
 244   2.0000      -0.477397       -12.9906
 245   2.0000      -0.476937       -12.9781
 246   2.0000      -0.473516       -12.8850
 247   2.0000      -0.471148       -12.8206
 248   2.0000      -0.469462       -12.7747
 249   2.0000      -0.467676       -12.7261
 250   2.0000      -0.465866       -12.6769
 251   2.0000      -0.464409       -12.6372
 252   2.0000      -0.463333       -12.6079
 253   2.0000      -0.462125       -12.5751
 254   2.0000      -0.461166       -12.5490
 255   2.0000      -0.460853       -12.5404
 256   2.0000      -0.458401       -12.4737
 257   2.0000      -0.457981       -12.4623
 258   2.0000      -0.450904       -12.2697
 259   2.0000      -0.448790       -12.2122
 260   2.0000      -0.444703       -12.1010
 261   2.0000      -0.443406       -12.0657
 262   2.0000      -0.442155       -12.0316
 263   2.0000      -0.440531       -11.9875
 264   2.0000      -0.438542       -11.9333
 265   2.0000      -0.435400       -11.8478
 266   2.0000      -0.433649       -11.8002
 267   2.0000      -0.433126       -11.7860
 268   2.0000      -0.425708       -11.5841
 269   2.0000      -0.417687       -11.3658
 270   2.0000      -0.415630       -11.3099
 271   2.0000      -0.406333       -11.0569
 272   2.0000      -0.404762       -11.0141
 273   2.0000      -0.401109       -10.9147
 274   2.0000      -0.385141       -10.4802
 275   2.0000      -0.380617       -10.3571
 276   2.0000      -0.377789       -10.2802
 277   2.0000      -0.375392       -10.2149
 278   2.0000      -0.373084       -10.1521
 279   2.0000      -0.367697       -10.0056
 280   2.0000      -0.363757        -9.8983
 281   2.0000      -0.347963        -9.4685
 282   2.0000      -0.346798        -9.4369
 283   2.0000      -0.343361        -9.3433
 284   2.0000      -0.335131        -9.1194
 285   2.0000      -0.318704        -8.6724
 286   2.0000      -0.311772        -8.4838
 287   2.0000      -0.301327        -8.1995
 288   2.0000      -0.266974        -7.2647
 289   0.0000      -0.080607        -2.1934
 290   0.0000      -0.069061        -1.8793
 291   0.0000      -0.048426        -1.3177
 292   0.0000      -0.043850        -1.1932
 293   0.0000      -0.027495        -0.7482

MULLIKEN ATOMIC CHARGES
-----------------------
   0 C :   -0.002280
   1 C :   -0.094029
   2 S :    0.202696
   3 C :   -0.071117
   4 C :    0.042805
   5 N :   -0.256066
   6 C :    0.056382
   7 C :    0.079820
   8 C :   -0.076498
   9 C :    0.027613
  10 N :   -0.299024
  11 S :    0.492799
  12 N :   -0.291684
  13 C :   -0.004030
  14 C :   -0.048196
  15 C :    0.058382
  16 N :   -0.292935
  17 C :    0.071076
  18 C :   -0.033780
  19 C :    0.050598
  20 C :   -0.086026
  21 S :    0.231515
  22 C :   -0.155380
  23 C :    0.103464
  24 C :   -0.069652
  25 C :    0.069484
  26 C :   -0.144750
  27 C :    0.281892
  28 C :   -0.375903
  29 C :   -0.128012
  30 N :    0.102898
  31 C :   -0.136072
  32 N :    0.111819
  33 C :    0.012823
  34 C :    0.004776
  35 C :    0.028259
  36 Cl:   -0.039357
  37 C :    0.045153
  38 C :   -0.013755
  39 C :   -0.061338
  40 C :    0.230027
  41 O :   -0.199215
  42 N :   -0.231567
  43 C :    0.143198
  44 C :   -0.101316
  45 C :    0.056342
  46 C :   -0.053117
  47 C :   -0.028921
  48 C :   -0.156762
  49 S :    0.169623
  50 Cl:   -0.048871
  51 C :    0.234979
  52 O :   -0.203852
  53 C :   -0.060764
  54 C :   -0.016467
  55 C :    0.046440
  56 C :    0.030665
  57 Cl:   -0.037387
  58 C :   -0.001188
  59 C :    0.013835
  60 C :    0.294406
  61 C :   -0.383628
  62 C :   -0.116384
  63 N :    0.094595
  64 C :   -0.129715
  65 N :    0.107631
  66 C :   -0.151891
  67 C :    0.007500
  68 Cl:   -0.047722
  69 C :   -0.084036
  70 C :   -0.090506
  71 S :    0.160782
  72 C :   -0.000392
  73 C :   -0.012620
  74 H :    0.047743
  75 H :    0.062961
  76 H :    0.046184
  77 H :    0.022099
  78 H :    0.061118
  79 H :    0.052829
  80 H :    0.038384
  81 H :    0.047969
  82 H :    0.049417
  83 H :    0.073319
  84 H :    0.032040
  85 H :    0.029092
  86 H :    0.024477
  87 H :    0.060113
  88 H :    0.052925
  89 H :    0.049048
  90 H :    0.059146
  91 H :    0.051474
  92 H :    0.034516
  93 H :    0.025843
  94 H :    0.029260
  95 H :   -0.008648
  96 H :    0.041789
  97 H :    0.061770
  98 H :    0.035683
  99 H :    0.057399
 100 H :    0.033977
Sum of atomic charges:   -0.0000000

LOEWDIN ATOMIC CHARGES
----------------------
   0 C :   -0.188038
   1 C :   -0.200390
   2 S :    0.419922
   3 C :   -0.164735
   4 C :   -0.042935
   5 N :    0.030617
   6 C :    0.040185
   7 C :    0.019608
   8 C :   -0.083800
   9 C :   -0.048811
  10 N :   -0.287317
  11 S :    0.611475
  12 N :   -0.281255
  13 C :   -0.057579
  14 C :   -0.057578
  15 C :    0.006174
  16 N :   -0.034035
  17 C :    0.050611
  18 C :   -0.064983
  19 C :   -0.039185
  20 C :   -0.171729
  21 S :    0.434034
  22 C :   -0.223708
  23 C :   -0.003311
  24 C :   -0.070694
  25 C :    0.059114
  26 C :   -0.124167
  27 C :    0.078725
  28 C :   -0.147647
  29 C :   -0.014363
  30 N :   -0.053947
  31 C :   -0.020664
  32 N :   -0.050510
  33 C :   -0.016749
  34 C :   -0.010169
  35 C :   -0.130991
  36 Cl:    0.156167
  37 C :   -0.135475
  38 C :   -0.000782
  39 C :   -0.047765
  40 C :    0.097532
  41 O :   -0.158881
  42 N :    0.028031
  43 C :   -0.027441
  44 C :   -0.190106
  45 C :    0.040237
  46 C :   -0.063954
  47 C :   -0.016357
  48 C :   -0.183250
  49 S :    0.431179
  50 Cl:    0.151177
  51 C :    0.092599
  52 O :   -0.172227
  53 C :   -0.047211
  54 C :   -0.000252
  55 C :   -0.134897
  56 C :   -0.130822
  57 Cl:    0.157151
  58 C :   -0.009798
  59 C :   -0.016404
  60 C :    0.081427
  61 C :   -0.152069
  62 C :   -0.012009
  63 N :   -0.059285
  64 C :   -0.015633
  65 N :   -0.053556
  66 C :   -0.134555
  67 C :    0.068106
  68 Cl:    0.152162
  69 C :   -0.007822
  70 C :   -0.197840
  71 S :    0.483755
  72 C :   -0.034872
  73 C :   -0.044473
  74 H :    0.025216
  75 H :    0.034380
  76 H :    0.027277
  77 H :    0.023018
  78 H :    0.029956
  79 H :    0.041826
  80 H :    0.028120
  81 H :    0.030554
  82 H :    0.037853
  83 H :    0.017725
  84 H :    0.045843
  85 H :    0.047152
  86 H :    0.047648
  87 H :    0.036889
  88 H :    0.030417
  89 H :    0.026896
  90 H :    0.037000
  91 H :    0.036110
  92 H :    0.035530
  93 H :    0.048387
  94 H :    0.047403
  95 H :    0.047467
  96 H :    0.034423
  97 H :    0.039934
  98 H :    0.027793
  99 H :    0.035964
 100 H :    0.026261

  Mayer bond orders larger than 0.100000
B(  0-C ,  1-C ) :   1.4020 B(  0-C ,  4-C ) :   1.3292 B(  0-C , 71-S ) :   1.0345
B(  1-C ,  2-S ) :   1.0200 B(  1-C , 69-C ) :   1.4571 B(  2-S ,  3-C ) :   1.0308
B(  3-C ,  4-C ) :   1.4168 B(  3-C ,  8-C ) :   1.3659 B(  4-C ,  5-N ) :   1.1272
B(  5-N ,  6-C ) :   0.9171 B(  5-N ,  7-C ) :   1.1763 B(  6-C , 24-C ) :   1.0833
B(  6-C , 74-H ) :   0.9453 B(  6-C , 75-H ) :   0.9536 B(  7-C ,  8-C ) :   1.3671
B(  7-C , 15-C ) :   1.1850 B(  8-C ,  9-C ) :   1.1451 B(  9-C , 10-N ) :   1.6038
B(  9-C , 13-C ) :   1.1437 B( 10-N , 11-S ) :   1.2351 B( 10-N , 12-N ) :   0.1331
B( 11-S , 12-N ) :   1.2429 B( 12-N , 13-C ) :   1.6086 B( 13-C , 14-C ) :   1.1193
B( 14-C , 15-C ) :   1.4650 B( 14-C , 20-C ) :   1.3054 B( 15-C , 16-N ) :   1.0639
B( 16-N , 17-C ) :   0.9177 B( 16-N , 19-C ) :   1.1010 B( 17-C , 18-C ) :   1.1145
B( 17-C , 76-H ) :   0.9468 B( 17-C , 77-H ) :   0.9518 B( 18-C , 78-H ) :   0.9572
B( 18-C , 79-H ) :   0.9565 B( 18-C , 80-H ) :   0.9615 B( 19-C , 20-C ) :   1.4553
B( 19-C , 23-C ) :   1.2773 B( 20-C , 21-S ) :   1.0484 B( 21-S , 22-C ) :   0.9972
B( 22-C , 23-C ) :   1.3892 B( 22-C , 44-C ) :   1.4817 B( 23-C , 42-N ) :   1.1877
B( 24-C , 81-H ) :   0.9722 B( 24-C , 82-H ) :   0.9640 B( 24-C , 83-H ) :   0.9568
B( 25-C , 26-C ) :   1.5621 B( 25-C , 48-C ) :   1.2896 B( 25-C , 84-H ) :   0.9155
B( 26-C , 27-C ) :   1.1051 B( 26-C , 40-C ) :   0.9667 B( 27-C , 28-C ) :   1.6337
B( 27-C , 33-C ) :   0.9990 B( 28-C , 29-C ) :   1.1313 B( 28-C , 31-C ) :   1.1289
B( 29-C , 30-N ) :   2.9658 B( 31-C , 32-N ) :   2.9725 B( 33-C , 34-C ) :   1.3702
B( 33-C , 39-C ) :   1.3344 B( 34-C , 35-C ) :   1.3718 B( 34-C , 85-H ) :   0.9827
B( 35-C , 36-Cl) :   1.0790 B( 35-C , 37-C ) :   1.4090 B( 37-C , 38-C ) :   1.3542
B( 37-C , 50-Cl) :   1.0486 B( 38-C , 39-C ) :   1.3718 B( 38-C , 86-H ) :   1.0122
B( 39-C , 40-C ) :   0.9594 B( 40-C , 41-O ) :   2.1274 B( 42-N , 43-C ) :   1.0989
B( 42-N , 45-C ) :   0.9316 B( 43-C , 44-C ) :   1.3294 B( 43-C , 47-C ) :   1.2832
B( 44-C , 49-S ) :   1.0743 B( 45-C , 46-C ) :   1.0859 B( 45-C , 87-H ) :   0.9528
B( 45-C , 88-H ) :   0.9565 B( 46-C , 89-H ) :   0.9665 B( 46-C , 90-H ) :   0.9652
B( 46-C , 91-H ) :   0.9698 B( 47-C , 48-C ) :   1.3850 B( 47-C , 92-H ) :   0.9813
B( 48-C , 49-S ) :   1.0619 B( 51-C , 52-O ) :   2.1213 B( 51-C , 53-C ) :   0.9599
B( 51-C , 66-C ) :   0.9814 B( 53-C , 54-C ) :   1.3720 B( 53-C , 59-C ) :   1.3368
B( 54-C , 55-C ) :   1.3487 B( 54-C , 93-H ) :   1.0138 B( 55-C , 56-C ) :   1.4123
B( 55-C , 68-Cl) :   1.0494 B( 56-C , 57-Cl) :   1.0811 B( 56-C , 58-C ) :   1.3667
B( 58-C , 59-C ) :   1.3711 B( 58-C , 94-H ) :   0.9841 B( 59-C , 60-C ) :   0.9988
B( 60-C , 61-C ) :   1.6252 B( 60-C , 66-C ) :   1.1122 B( 61-C , 62-C ) :   1.1418
B( 61-C , 64-C ) :   1.1309 B( 62-C , 63-N ) :   2.9504 B( 64-C , 65-N ) :   2.9665
B( 66-C , 67-C ) :   1.5056 B( 67-C , 70-C ) :   1.3303 B( 67-C , 95-H ) :   0.9263
B( 69-C , 70-C ) :   1.3764 B( 69-C , 72-C ) :   1.0563 B( 70-C , 71-S ) :   1.0388
B( 72-C , 73-C ) :   1.0882 B( 72-C , 96-H ) :   0.9320 B( 72-C , 97-H ) :   0.9127
B( 73-C , 98-H ) :   0.9699 B( 73-C , 99-H ) :   0.9709 B( 73-C ,100-H ) :   0.9728

-----------------------------------------------------------------------------
         ABSORPTION SPECTRUM VIA TRANSITION ELECTRIC DIPOLE MOMENTS
-----------------------------------------------------------------------------
State   Energy  Wavelength   fosc         T2         TX        TY        TZ
        (cm-1)    (nm)                  (au**2)     (au)      (au)      (au)
-----------------------------------------------------------------------------
   0   18530.1    539.7   3.274681798  58.17923   4.65468   6.04159   0.11082
   1   24199.0    413.2   0.645250969   8.77824   1.99362  -1.82650  -1.21146
   2   28168.6    355.0   0.004310214   0.05037   0.15163  -0.05081   0.15748
   3   28628.3    349.3   0.012911265   0.14847  -0.11309   0.33825   0.14583
   4   29043.9    344.3   0.152721673   1.73110   0.03555   1.31122   0.10269
   5   29268.2    341.7   0.257826835   2.90007   1.54001  -0.66754  -0.28776
   6   30130.1    331.9   0.061514891   0.67213   0.58884   0.54435  -0.17053
   7   31872.3    313.8   0.023339784   0.24108   0.10909  -0.47232   0.07803
   8   33836.9    295.5   0.080924928   0.78735  -0.74716   0.14631  -0.45574
   9   34415.0    290.6   0.347319479   3.32244   1.68136  -0.69802  -0.09070
  10   35814.3    279.2   1.207805810  11.10238   2.16870  -2.52108  -0.20796
  11   36412.8    274.6   0.031889676   0.28832   0.05433  -0.24204   0.47622
  12   36824.5    271.6   0.024618190   0.22009  -0.36586   0.27549   0.10169
  13   37634.0    265.7   0.195608488   1.71113  -1.07287  -0.01730  -0.74819
  14   38500.1    259.7   0.222704254   1.90433  -0.14075  -1.31641  -0.38933
  15   39378.0    253.9   0.230487636   1.92695  -1.22574  -0.63908  -0.12679
  16   39546.8    252.9   0.026615148   0.22156   0.12141  -0.12000  -0.43866
  17   39793.9    251.3   0.099651584   0.82441   0.02754  -0.80715  -0.41493
  18   40130.2    249.2   0.081168577   0.66587  -0.51681   0.61942   0.12286

Dispersion correction           -0.067608844
FINAL SINGLE POINT ENERGY     -6544.920478800103

DIPOLE MOMENT
-------------
                                X             Y             Z
Electronic contribution:      2.74059     -42.55135     -19.13903
Nuclear contribution   :     -0.75350      41.99276      20.44161
                        -----------------------------------------
Total Dipole Moment    :      1.98710      -0.55858       1.30258
                        -----------------------------------------
Magnitude (a.u.)       :      2.44076
Magnitude (Debye)      :      6.20391

Rotational constants in cm-1:     0.001120     0.000203     0.000175
Rotational constants in MHz :    33.589063     6.095774     5.249868

                             ****ORCA TERMINATED NORMALLY****
TOTAL RUN TIME: 0 days 0 hours 11 minutes 29 seconds 207 msec
