                         Program Version 4.2.0 -  RELEASE  -
|  1> # ORCA input file
|  2> # SCF done       -192.062039857654          0.000722910908
|  3> ! wb97x-d3 def2-SVP def2/J RIJCOSX Grid4 TightSCF
|  4> %maxcore 5000
|  5> %tddft
|  6>     Mode sTDDFT
|  7>     Ethresh 5.0
|  8>     maxcore 5000
|  9> end
| 10>
| 11> %pal
| 12>   nprocs 6
| 13>   end
| 14> * xyz 0 1
| 15>    C      -27.61237        28.94708       -20.88315
| 16>    C      -27.51937        30.21768       -20.42353
| 17>    C      -15.59860        26.60067       -13.08735
| 18>    S      -16.15933        28.23000       -12.71517
| 19>    C      -17.36242        28.11615       -13.94060
| 20>    C      -17.31772        26.86749       -14.59894
| 21>    C      -16.31901        26.02214       -14.11562
| 22>    C      -18.40795        28.83541       -14.51638
| 23>    C      -18.97066        28.00692       -15.51076
| 24>    N      -18.28774        26.82045       -15.56596
| 25>    S      -19.21454        30.35462       -14.42644
| 26>    C      -20.31446        29.86698       -15.71334
| 27>    C      -20.04930        28.59344       -16.17585
| 28>    C      -24.66058        31.52982       -18.09218
| 29>    C      -18.61755        25.68621       -16.38944
| 30>    C      -19.64644        24.78089       -15.71512
| 31>    C      -25.59506        32.53885       -18.28862
| 32>    C      -26.64309        32.12936       -19.11847
| 33>    C      -26.56231        30.82836       -19.57552
| 34>    S      -25.11238        30.08854       -18.95819
| 35>    C       -9.68485        18.72151       -12.64120
| 36>    C      -10.46297        19.83520       -12.90056
| 37>    C      -10.84823        20.95819       -12.15021
| 38>    S      -12.00475        22.02966       -12.92858
| 39>    C      -11.96355        23.15377       -11.60896
| 40>    C      -11.07674        22.72091       -10.61910
| 41>    C      -10.47656        21.50540       -10.93116
| 42>    C      -10.81003        23.40370        -9.31324
| 43>    C      -11.99081        23.24208        -8.35414
| 44>    C      -12.79131        24.30615       -11.67939
| 45>    C      -12.82980        25.44462       -10.90258
| 46>    C      -13.78815        26.38974       -11.28740
| 47>    C      -14.52616        25.98251       -12.38958
| 48>    S      -13.99724        24.41138       -12.93710
| 49>    C      -13.92223        27.69558       -10.56993
| 50>    C      -13.09394        28.78369       -11.25604
| 51>    C      -25.57261        33.90330       -17.67285
| 52>    C      -26.03194        33.85503       -16.21400
| 53>    C      -23.46419        31.49026       -17.31967
| 54>    C      -22.83186        32.45896       -16.57479
| 55>    C      -21.66032        32.03557       -15.92847
| 56>    C      -21.37145        30.70387       -16.16882
| 57>    S      -22.57060        29.99531       -17.22350
| 58>    C      -20.87446        32.96888       -15.06273
| 59>    C      -21.38301        32.93752       -13.62017
| 60>    C       -9.34504        17.84914       -13.73105
| 61>    C       -8.57919        16.74027       -13.50530
| 62>    C       -8.09757        16.36036       -12.17717
| 63>    N       -8.50263        17.19677       -11.15000
| 64>    C       -9.23992        18.35711       -11.28523
| 65>    C      -28.73012        28.67480       -21.79623
| 66>    N      -28.87077        27.36173       -22.26351
| 67>    C      -28.23299        26.26630       -21.75293
| 68>    C      -27.44943        26.52915       -20.46930
| 69>    C      -26.65325        27.83664       -20.57473
| 70>    O       -9.52196        18.99590       -10.28650
| 71>    C       -8.07494        16.83205        -9.80317
| 72>    C       -6.73752        17.47375        -9.45775
| 73>    O       -7.40417        15.38852       -11.95874
| 74>    C       -8.19133        15.88069       -14.55472
| 75>    C       -9.78243        18.15803       -15.13173
| 76>    C      -25.57055        27.73029       -21.65220
| 77>    C      -28.40287        26.61821       -19.38924
| 78>    O      -28.31158        25.16859       -22.24720
| 79>    C      -29.77602        27.14847       -23.38927
| 80>    C      -29.04332        27.30466       -24.71534
| 81>    O      -29.48878        29.53614       -22.19001
| 82>    N       -7.87736        15.18393       -15.41035
| 83>    N      -29.15886        26.71442       -18.53766
| 84>    H      -28.30936        30.88683       -20.74837
| 85>    H      -16.11478        25.02936       -14.47454
| 86>    H      -20.62425        28.13288       -16.95896
| 87>    H      -19.00976        26.05782       -17.34002
| 88>    H      -17.69756        25.12942       -16.58603
| 89>    H      -20.56301        25.33238       -15.51923
| 90>    H      -19.87694        23.93594       -16.35781
| 91>    H      -19.25829        24.40680       -14.77065
| 92>    H      -27.46307        32.77414       -19.38293
| 93>    H      -10.86841        19.87817       -13.90401
| 94>    H       -9.78043        21.01509       -10.27801
| 95>    H       -9.92574        22.94811        -8.86511
| 96>    H      -10.59111        24.46085        -9.47311
| 97>    H      -12.16129        22.18735        -8.15279
| 98>    H      -11.78250        23.74471        -7.41275
| 99>    H      -12.89965        23.66084        -8.77989
|100>    H      -12.17363        25.61840       -10.07134
|101>    H      -14.96801        28.00277       -10.52878
|102>    H      -13.56785        27.56841        -9.54495
|103>    H      -13.42956        28.93206       -12.27912
|104>    H      -13.19391        29.72409       -10.72078
|105>    H      -12.04317        28.50277       -11.27525
|106>    H      -24.57232        34.33338       -17.74262
|107>    H      -26.24843        34.54836       -18.23727
|108>    H      -25.40040        33.18909       -15.63087
|109>    H      -25.99503        34.84835       -15.77315
|110>    H      -27.05435        33.48903       -16.15702
|111>    H      -23.18503        33.46799       -16.48356
|112>    H      -19.81583        32.70758       -15.08313
|113>    H      -20.97995        33.98190       -15.45736
|114>    H      -21.28700        31.93814       -13.20346
|115>    H      -20.80767        33.62435       -13.00509
|116>    H      -22.43055        33.22851       -13.58178
|117>    H      -26.79205        25.67151       -20.28994
|118>    H      -26.17176        28.02296       -19.60949
|119>    H       -8.84971        17.16696        -9.11108
|120>    H       -7.98971        15.74433        -9.77696
|121>    H       -6.81773        18.55769        -9.50145
|122>    H       -6.44151        17.18431        -8.45337
|123>    H       -5.97306        17.14319       -10.15702
|124>    H       -9.42212        19.13749       -15.44327
|125>    H       -9.38935        17.41328       -15.81905
|126>    H      -10.86965        18.14848       -15.20627
|127>    H      -25.01184        28.66144       -21.70427
|128>    H      -24.87875        26.92471       -21.41712
|129>    H      -26.01225        27.53578       -22.62747
|130>    H      -30.18451        26.14089       -23.29595
|131>    H      -30.57506        27.88676       -23.30406
|132>    H      -28.24502        26.56990       -24.79386
|133>    H      -29.73802        27.15216       -25.53622
|134>    H      -28.62075        28.30388       -24.79709
|135> *
|136>
|137>                          ****END OF INPUT****

CARTESIAN COORDINATES (ANGSTROEM)
---------------------------------
  C    -27.612370   28.947080  -20.883150
  C    -27.519370   30.217680  -20.423530
  C    -15.598600   26.600670  -13.087350
  S    -16.159330   28.230000  -12.715170
  C    -17.362420   28.116150  -13.940600
  C    -17.317720   26.867490  -14.598940
  C    -16.319010   26.022140  -14.115620
  C    -18.407950   28.835410  -14.516380
  C    -18.970660   28.006920  -15.510760
  N    -18.287740   26.820450  -15.565960
  S    -19.214540   30.354620  -14.426440
  C    -20.314460   29.866980  -15.713340
  C    -20.049300   28.593440  -16.175850
  C    -24.660580   31.529820  -18.092180
  C    -18.617550   25.686210  -16.389440
  C    -19.646440   24.780890  -15.715120
  C    -25.595060   32.538850  -18.288620
  C    -26.643090   32.129360  -19.118470
  C    -26.562310   30.828360  -19.575520
  S    -25.112380   30.088540  -18.958190
  C     -9.684850   18.721510  -12.641200
  C    -10.462970   19.835200  -12.900560
  C    -10.848230   20.958190  -12.150210
  S    -12.004750   22.029660  -12.928580
  C    -11.963550   23.153770  -11.608960
  C    -11.076740   22.720910  -10.619100
  C    -10.476560   21.505400  -10.931160
  C    -10.810030   23.403700   -9.313240
  C    -11.990810   23.242080   -8.354140
  C    -12.791310   24.306150  -11.679390
  C    -12.829800   25.444620  -10.902580
  C    -13.788150   26.389740  -11.287400
  C    -14.526160   25.982510  -12.389580
  S    -13.997240   24.411380  -12.937100
  C    -13.922230   27.695580  -10.569930
  C    -13.093940   28.783690  -11.256040
  C    -25.572610   33.903300  -17.672850
  C    -26.031940   33.855030  -16.214000
  C    -23.464190   31.490260  -17.319670
  C    -22.831860   32.458960  -16.574790
  C    -21.660320   32.035570  -15.928470
  C    -21.371450   30.703870  -16.168820
  S    -22.570600   29.995310  -17.223500
  C    -20.874460   32.968880  -15.062730
  C    -21.383010   32.937520  -13.620170
  C     -9.345040   17.849140  -13.731050
  C     -8.579190   16.740270  -13.505300
  C     -8.097570   16.360360  -12.177170
  N     -8.502630   17.196770  -11.150000
  C     -9.239920   18.357110  -11.285230
  C    -28.730120   28.674800  -21.796230
  N    -28.870770   27.361730  -22.263510
  C    -28.232990   26.266300  -21.752930
  C    -27.449430   26.529150  -20.469300
  C    -26.653250   27.836640  -20.574730
  O     -9.521960   18.995900  -10.286500
  C     -8.074940   16.832050   -9.803170
  C     -6.737520   17.473750   -9.457750
  O     -7.404170   15.388520  -11.958740
  C     -8.191330   15.880690  -14.554720
  C     -9.782430   18.158030  -15.131730
  C    -25.570550   27.730290  -21.652200
  C    -28.402870   26.618210  -19.389240
  O    -28.311580   25.168590  -22.247200
  C    -29.776020   27.148470  -23.389270
  C    -29.043320   27.304660  -24.715340
  O    -29.488780   29.536140  -22.190010
  N     -7.877360   15.183930  -15.410350
  N    -29.158860   26.714420  -18.537660
  H    -28.309360   30.886830  -20.748370
  H    -16.114780   25.029360  -14.474540
  H    -20.624250   28.132880  -16.958960
  H    -19.009760   26.057820  -17.340020
  H    -17.697560   25.129420  -16.586030
  H    -20.563010   25.332380  -15.519230
  H    -19.876940   23.935940  -16.357810
  H    -19.258290   24.406800  -14.770650
  H    -27.463070   32.774140  -19.382930
  H    -10.868410   19.878170  -13.904010
  H     -9.780430   21.015090  -10.278010
  H     -9.925740   22.948110   -8.865110
  H    -10.591110   24.460850   -9.473110
  H    -12.161290   22.187350   -8.152790
  H    -11.782500   23.744710   -7.412750
  H    -12.899650   23.660840   -8.779890
  H    -12.173630   25.618400  -10.071340
  H    -14.968010   28.002770  -10.528780
  H    -13.567850   27.568410   -9.544950
  H    -13.429560   28.932060  -12.279120
  H    -13.193910   29.724090  -10.720780
  H    -12.043170   28.502770  -11.275250
  H    -24.572320   34.333380  -17.742620
  H    -26.248430   34.548360  -18.237270
  H    -25.400400   33.189090  -15.630870
  H    -25.995030   34.848350  -15.773150
  H    -27.054350   33.489030  -16.157020
  H    -23.185030   33.467990  -16.483560
  H    -19.815830   32.707580  -15.083130
  H    -20.979950   33.981900  -15.457360
  H    -21.287000   31.938140  -13.203460
  H    -20.807670   33.624350  -13.005090
  H    -22.430550   33.228510  -13.581780
  H    -26.792050   25.671510  -20.289940
  H    -26.171760   28.022960  -19.609490
  H     -8.849710   17.166960   -9.111080
  H     -7.989710   15.744330   -9.776960
  H     -6.817730   18.557690   -9.501450
  H     -6.441510   17.184310   -8.453370
  H     -5.973060   17.143190  -10.157020
  H     -9.422120   19.137490  -15.443270
  H     -9.389350   17.413280  -15.819050
  H    -10.869650   18.148480  -15.206270
  H    -25.011840   28.661440  -21.704270
  H    -24.878750   26.924710  -21.417120
  H    -26.012250   27.535780  -22.627470
  H    -30.184510   26.140890  -23.295950
  H    -30.575060   27.886760  -23.304060
  H    -28.245020   26.569900  -24.793860
  H    -29.738020   27.152160  -25.536220
  H    -28.620750   28.303880  -24.797090

 Total Charge           Charge          ....    0
 Multiplicity           Mult            ....    1
 Number of Electrons    NEL             ....  538
 Basis Dimension        Dim             .... 1245

ORBITAL ENERGIES
----------------

  NO   OCC          E(Eh)            E(eV)
   0   2.0000     -88.991720     -2421.5878
   1   2.0000     -88.990849     -2421.5641
   2   2.0000     -88.988867     -2421.5102
   3   2.0000     -88.988158     -2421.4909
   4   2.0000     -88.987275     -2421.4668
   5   2.0000     -88.983795     -2421.3721
   6   2.0000     -19.242911      -523.6262
   7   2.0000     -19.233285      -523.3643
   8   2.0000     -19.229465      -523.2603
   9   2.0000     -19.223653      -523.1022
  10   2.0000     -14.505347      -394.7105
  11   2.0000     -14.495163      -394.4335
  12   2.0000     -14.486203      -394.1896
  13   2.0000     -14.438692      -392.8968
  14   2.0000     -14.422854      -392.4658
  15   2.0000     -10.429019      -283.7880
  16   2.0000     -10.419972      -283.5418
  17   2.0000     -10.418669      -283.5064
  18   2.0000     -10.412907      -283.3496
  19   2.0000     -10.364077      -282.0209
  20   2.0000     -10.360379      -281.9202
  21   2.0000     -10.360153      -281.9141
  22   2.0000     -10.359687      -281.9014
  23   2.0000     -10.358530      -281.8699
  24   2.0000     -10.353213      -281.7252
  25   2.0000     -10.352484      -281.7054
  26   2.0000     -10.351940      -281.6906
  27   2.0000     -10.351457      -281.6775
  28   2.0000     -10.350779      -281.6590
  29   2.0000     -10.349962      -281.6368
  30   2.0000     -10.347654      -281.5740
  31   2.0000     -10.345960      -281.5279
  32   2.0000     -10.345182      -281.5067
  33   2.0000     -10.345084      -281.5041
  34   2.0000     -10.345049      -281.5031
  35   2.0000     -10.341777      -281.4141
  36   2.0000     -10.337711      -281.3034
  37   2.0000     -10.334269      -281.2098
  38   2.0000     -10.333388      -281.1858
  39   2.0000     -10.332803      -281.1699
  40   2.0000     -10.331484      -281.1340
  41   2.0000     -10.331301      -281.1290
  42   2.0000     -10.328574      -281.0548
  43   2.0000     -10.322964      -280.9021
  44   2.0000     -10.322953      -280.9018
  45   2.0000     -10.322470      -280.8887
  46   2.0000     -10.322049      -280.8772
  47   2.0000     -10.321712      -280.8681
  48   2.0000     -10.320733      -280.8414
  49   2.0000     -10.320652      -280.8392
  50   2.0000     -10.319652      -280.8120
  51   2.0000     -10.319052      -280.7957
  52   2.0000     -10.318387      -280.7776
  53   2.0000     -10.317710      -280.7592
  54   2.0000     -10.317699      -280.7589
  55   2.0000     -10.314785      -280.6796
  56   2.0000     -10.313504      -280.6447
  57   2.0000     -10.313019      -280.6315
  58   2.0000     -10.311948      -280.6024
  59   2.0000     -10.310144      -280.5533
  60   2.0000     -10.309423      -280.5337
  61   2.0000     -10.307907      -280.4924
  62   2.0000     -10.306832      -280.4632
  63   2.0000     -10.295888      -280.1653
  64   2.0000     -10.294071      -280.1159
  65   2.0000     -10.293227      -280.0929
  66   2.0000     -10.292071      -280.0615
  67   2.0000     -10.287063      -279.9252
  68   2.0000     -10.278986      -279.7054
  69   2.0000      -8.106034      -220.5764
  70   2.0000      -8.104394      -220.5318
  71   2.0000      -8.102079      -220.4688
  72   2.0000      -8.101155      -220.4436
  73   2.0000      -8.099757      -220.4056
  74   2.0000      -8.097883      -220.3546
  75   2.0000      -6.065417      -165.0484
  76   2.0000      -6.063895      -165.0070
  77   2.0000      -6.061732      -164.9481
  78   2.0000      -6.061413      -164.9394
  79   2.0000      -6.061182      -164.9332
  80   2.0000      -6.059790      -164.8953
  81   2.0000      -6.059739      -164.8939
  82   2.0000      -6.058362      -164.8564
  83   2.0000      -6.057587      -164.8353
  84   2.0000      -6.057574      -164.8350
  85   2.0000      -6.056873      -164.8159
  86   2.0000      -6.056754      -164.8127
  87   2.0000      -6.055477      -164.7779
  88   2.0000      -6.054106      -164.7406
  89   2.0000      -6.053352      -164.7201
  90   2.0000      -6.052811      -164.7054
  91   2.0000      -6.051344      -164.6654
  92   2.0000      -6.049831      -164.6243
  93   2.0000      -1.193941       -32.4888
  94   2.0000      -1.183384       -32.2015
  95   2.0000      -1.168493       -31.7963
  96   2.0000      -1.157840       -31.5064
  97   2.0000      -1.136296       -30.9202
  98   2.0000      -1.071388       -29.1540
  99   2.0000      -1.059522       -28.8311
 100   2.0000      -1.047405       -28.5014
 101   2.0000      -1.044094       -28.4112
 102   2.0000      -1.031630       -28.0721
 103   2.0000      -1.030124       -28.0311
 104   2.0000      -1.027344       -27.9555
 105   2.0000      -1.016069       -27.6486
 106   2.0000      -1.010411       -27.4947
 107   2.0000      -1.006283       -27.3824
 108   2.0000      -0.989283       -26.9198
 109   2.0000      -0.988001       -26.8849
 110   2.0000      -0.947883       -25.7932
 111   2.0000      -0.942612       -25.6498
 112   2.0000      -0.937427       -25.5087
 113   2.0000      -0.930006       -25.3067
 114   2.0000      -0.927735       -25.2450
 115   2.0000      -0.913585       -24.8599
 116   2.0000      -0.913330       -24.8530
 117   2.0000      -0.903452       -24.5842
 118   2.0000      -0.901875       -24.5413
 119   2.0000      -0.887230       -24.1428
 120   2.0000      -0.886461       -24.1218
 121   2.0000      -0.882662       -24.0185
 122   2.0000      -0.880247       -23.9527
 123   2.0000      -0.872607       -23.7448
 124   2.0000      -0.862981       -23.4829
 125   2.0000      -0.858145       -23.3513
 126   2.0000      -0.857561       -23.3354
 127   2.0000      -0.847282       -23.0557
 128   2.0000      -0.846640       -23.0382
 129   2.0000      -0.845112       -22.9967
 130   2.0000      -0.840924       -22.8827
 131   2.0000      -0.832895       -22.6642
 132   2.0000      -0.815631       -22.1944
 133   2.0000      -0.798792       -21.7362
 134   2.0000      -0.787828       -21.4379
 135   2.0000      -0.774119       -21.0648
 136   2.0000      -0.772158       -21.0115
 137   2.0000      -0.767869       -20.8948
 138   2.0000      -0.761670       -20.7261
 139   2.0000      -0.757841       -20.6219
 140   2.0000      -0.755396       -20.5554
 141   2.0000      -0.754295       -20.5254
 142   2.0000      -0.751957       -20.4618
 143   2.0000      -0.746746       -20.3200
 144   2.0000      -0.737149       -20.0588
 145   2.0000      -0.731067       -19.8933
 146   2.0000      -0.716696       -19.5023
 147   2.0000      -0.712812       -19.3966
 148   2.0000      -0.708103       -19.2685
 149   2.0000      -0.698139       -18.9973
 150   2.0000      -0.691124       -18.8064
 151   2.0000      -0.680426       -18.5153
 152   2.0000      -0.677961       -18.4483
 153   2.0000      -0.675613       -18.3844
 154   2.0000      -0.671339       -18.2681
 155   2.0000      -0.666869       -18.1464
 156   2.0000      -0.659145       -17.9362
 157   2.0000      -0.653688       -17.7878
 158   2.0000      -0.648140       -17.6368
 159   2.0000      -0.646034       -17.5795
 160   2.0000      -0.634816       -17.2742
 161   2.0000      -0.632852       -17.2208
 162   2.0000      -0.622345       -16.9349
 163   2.0000      -0.620666       -16.8892
 164   2.0000      -0.608667       -16.5627
 165   2.0000      -0.605067       -16.4647
 166   2.0000      -0.601887       -16.3782
 167   2.0000      -0.600491       -16.3402
 168   2.0000      -0.595798       -16.2125
 169   2.0000      -0.593997       -16.1635
 170   2.0000      -0.587858       -15.9964
 171   2.0000      -0.584958       -15.9175
 172   2.0000      -0.583163       -15.8687
 173   2.0000      -0.579695       -15.7743
 174   2.0000      -0.573969       -15.6185
 175   2.0000      -0.570859       -15.5339
 176   2.0000      -0.567115       -15.4320
 177   2.0000      -0.566010       -15.4019
 178   2.0000      -0.563815       -15.3422
 179   2.0000      -0.562004       -15.2929
 180   2.0000      -0.559768       -15.2321
 181   2.0000      -0.559581       -15.2270
 182   2.0000      -0.558149       -15.1880
 183   2.0000      -0.555206       -15.1079
 184   2.0000      -0.554722       -15.0948
 185   2.0000      -0.551910       -15.0182
 186   2.0000      -0.550613       -14.9829
 187   2.0000      -0.549209       -14.9447
 188   2.0000      -0.548103       -14.9146
 189   2.0000      -0.546884       -14.8815
 190   2.0000      -0.543848       -14.7989
 191   2.0000      -0.538197       -14.6451
 192   2.0000      -0.537180       -14.6174
 193   2.0000      -0.534814       -14.5530
 194   2.0000      -0.530615       -14.4388
 195   2.0000      -0.529407       -14.4059
 196   2.0000      -0.526377       -14.3235
 197   2.0000      -0.525224       -14.2921
 198   2.0000      -0.524194       -14.2640
 199   2.0000      -0.521530       -14.1915
 200   2.0000      -0.518737       -14.1155
 201   2.0000      -0.517145       -14.0722
 202   2.0000      -0.514031       -13.9875
 203   2.0000      -0.513438       -13.9714
 204   2.0000      -0.512507       -13.9460
 205   2.0000      -0.508644       -13.8409
 206   2.0000      -0.507889       -13.8204
 207   2.0000      -0.505780       -13.7630
 208   2.0000      -0.503079       -13.6895
 209   2.0000      -0.497893       -13.5484
 210   2.0000      -0.497224       -13.5302
 211   2.0000      -0.494552       -13.4575
 212   2.0000      -0.493924       -13.4404
 213   2.0000      -0.493629       -13.4323
 214   2.0000      -0.491956       -13.3868
 215   2.0000      -0.488743       -13.2994
 216   2.0000      -0.487040       -13.2530
 217   2.0000      -0.486082       -13.2270
 218   2.0000      -0.484663       -13.1883
 219   2.0000      -0.480571       -13.0770
 220   2.0000      -0.479067       -13.0361
 221   2.0000      -0.478051       -13.0084
 222   2.0000      -0.476983       -12.9794
 223   2.0000      -0.475695       -12.9443
 224   2.0000      -0.472953       -12.8697
 225   2.0000      -0.471561       -12.8318
 226   2.0000      -0.469353       -12.7718
 227   2.0000      -0.466040       -12.6816
 228   2.0000      -0.465660       -12.6713
 229   2.0000      -0.463281       -12.6065
 230   2.0000      -0.462675       -12.5900
 231   2.0000      -0.461140       -12.5483
 232   2.0000      -0.458298       -12.4709
 233   2.0000      -0.455181       -12.3861
 234   2.0000      -0.453730       -12.3466
 235   2.0000      -0.453222       -12.3328
 236   2.0000      -0.451882       -12.2963
 237   2.0000      -0.451315       -12.2809
 238   2.0000      -0.448942       -12.2163
 239   2.0000      -0.447703       -12.1826
 240   2.0000      -0.447217       -12.1694
 241   2.0000      -0.445351       -12.1186
 242   2.0000      -0.442211       -12.0332
 243   2.0000      -0.438672       -11.9369
 244   2.0000      -0.435609       -11.8535
 245   2.0000      -0.434465       -11.8224
 246   2.0000      -0.430624       -11.7179
 247   2.0000      -0.429934       -11.6991
 248   2.0000      -0.427075       -11.6213
 249   2.0000      -0.422169       -11.4878
 250   2.0000      -0.408002       -11.1023
 251   2.0000      -0.389142       -10.5891
 252   2.0000      -0.385294       -10.4844
 253   2.0000      -0.384695       -10.4681
 254   2.0000      -0.374808       -10.1990
 255   2.0000      -0.372344       -10.1320
 256   2.0000      -0.370215       -10.0741
 257   2.0000      -0.366072        -9.9613
 258   2.0000      -0.365053        -9.9336
 259   2.0000      -0.362110        -9.8535
 260   2.0000      -0.361696        -9.8423
 261   2.0000      -0.360186        -9.8012
 262   2.0000      -0.354038        -9.6339
 263   2.0000      -0.350241        -9.5305
 264   2.0000      -0.338586        -9.2134
 265   2.0000      -0.309591        -8.4244
 266   2.0000      -0.308705        -8.4003
 267   2.0000      -0.284702        -7.7471
 268   2.0000      -0.251369        -6.8401
 269   0.0000      -0.067588        -1.8392
 270   0.0000      -0.042564        -1.1582
 271   0.0000      -0.013224        -0.3598
 272   0.0000       0.012563         0.3418
 273   0.0000       0.035851         0.9755

MULLIKEN ATOMIC CHARGES
-----------------------
   0 C :   -0.160711
   1 C :    0.039473
   2 C :   -0.070229
   3 S :    0.132346
   4 C :   -0.122340
   5 C :    0.171175
   6 C :   -0.108872
   7 C :   -0.124327
   8 C :    0.172451
   9 N :   -0.236772
  10 S :    0.132947
  11 C :   -0.066130
  12 C :   -0.108069
  13 C :   -0.060006
  14 C :    0.065401
  15 C :   -0.048122
  16 C :   -0.065976
  17 C :   -0.020592
  18 C :   -0.062687
  19 S :    0.091661
  20 C :   -0.115269
  21 C :    0.064265
  22 C :   -0.117723
  23 S :    0.115800
  24 C :   -0.054345
  25 C :   -0.095484
  26 C :    0.025801
  27 C :    0.021941
  28 C :   -0.032247
  29 C :   -0.049651
  30 C :   -0.035774
  31 C :   -0.096779
  32 C :   -0.078052
  33 S :    0.102724
  34 C :    0.008537
  35 C :   -0.017086
  36 C :    0.017743
  37 C :   -0.027573
  38 C :   -0.037141
  39 C :   -0.053253
  40 C :   -0.091039
  41 C :   -0.086996
  42 S :    0.094361
  43 C :    0.010164
  44 C :   -0.016980
  45 C :   -0.008813
  46 C :   -0.294831
  47 C :    0.267847
  48 N :   -0.345343
  49 C :    0.261469
  50 C :    0.256401
  51 N :   -0.326141
  52 C :    0.179551
  53 C :   -0.089907
  54 C :   -0.113459
  55 O :   -0.257247
  56 C :    0.086242
  57 C :   -0.049838
  58 O :   -0.203383
  59 C :   -0.141050
  60 C :    0.087744
  61 C :    0.090619
  62 C :   -0.171138
  63 O :   -0.206157
  64 C :    0.076331
  65 C :   -0.056640
  66 O :   -0.225106
  67 N :    0.071666
  68 N :    0.088056
  69 H :    0.044426
  70 H :    0.012957
  71 H :    0.011279
  72 H :    0.049917
  73 H :    0.049966
  74 H :    0.047916
  75 H :    0.047233
  76 H :    0.047302
  77 H :    0.012830
  78 H :    0.013137
  79 H :    0.035796
  80 H :    0.031835
  81 H :    0.041155
  82 H :    0.041420
  83 H :    0.038582
  84 H :    0.039438
  85 H :   -0.007912
  86 H :    0.043931
  87 H :    0.028571
  88 H :    0.035415
  89 H :    0.041030
  90 H :    0.029700
  91 H :    0.041163
  92 H :    0.027228
  93 H :    0.039712
  94 H :    0.039586
  95 H :    0.036156
  96 H :   -0.010073
  97 H :    0.041269
  98 H :    0.028975
  99 H :    0.035016
 100 H :    0.040801
 101 H :    0.028264
 102 H :    0.075761
 103 H :    0.053456
 104 H :    0.052816
 105 H :    0.059666
 106 H :    0.036798
 107 H :    0.039995
 108 H :    0.047020
 109 H :    0.061029
 110 H :    0.064780
 111 H :    0.063709
 112 H :    0.043360
 113 H :    0.040208
 114 H :    0.037745
 115 H :    0.057698
 116 H :    0.066751
 117 H :    0.044803
 118 H :    0.045632
 119 H :    0.041311
Sum of atomic charges:   -0.0000000

LOEWDIN ATOMIC CHARGES
----------------------
   0 C :   -0.096569
   1 C :    0.030216
   2 C :   -0.180032
   3 S :    0.432352
   4 C :   -0.225331
   5 C :   -0.018003
   6 C :   -0.080248
   7 C :   -0.228691
   8 C :   -0.015187
   9 N :    0.028470
  10 S :    0.430240
  11 C :   -0.173200
  12 C :   -0.085918
  13 C :   -0.175823
  14 C :    0.042520
  15 C :   -0.064118
  16 C :   -0.055558
  17 C :   -0.030540
  18 C :   -0.184161
  19 S :    0.433581
  20 C :   -0.114208
  21 C :    0.051533
  22 C :   -0.189506
  23 S :    0.423730
  24 C :   -0.155549
  25 C :   -0.062238
  26 C :    0.005837
  27 C :   -0.032627
  28 C :   -0.053487
  29 C :   -0.192864
  30 C :   -0.042709
  31 C :   -0.060866
  32 C :   -0.170825
  33 S :    0.418357
  34 C :   -0.041713
  35 C :   -0.054131
  36 C :   -0.032768
  37 C :   -0.053329
  38 C :   -0.182634
  39 C :   -0.054679
  40 C :   -0.057043
  41 C :   -0.180435
  42 S :    0.411432
  43 C :   -0.041713
  44 C :   -0.053770
  45 C :    0.056081
  46 C :   -0.147582
  47 C :    0.095847
  48 N :   -0.030351
  49 C :    0.104633
  50 C :    0.103831
  51 N :   -0.035072
  52 C :    0.094063
  53 C :   -0.068830
  54 C :   -0.028635
  55 O :   -0.197421
  56 C :    0.042200
  57 C :   -0.062779
  58 O :   -0.179516
  59 C :   -0.019851
  60 C :   -0.045306
  61 C :   -0.041763
  62 C :   -0.029516
  63 O :   -0.168462
  64 C :    0.044793
  65 C :   -0.063644
  66 O :   -0.181602
  67 N :   -0.065338
  68 N :   -0.054623
  69 H :    0.051995
  70 H :    0.026848
  71 H :    0.026690
  72 H :    0.032523
  73 H :    0.032568
  74 H :    0.031648
  75 H :    0.033084
  76 H :    0.031684
  77 H :    0.036256
  78 H :    0.037261
  79 H :    0.037661
  80 H :    0.036344
  81 H :    0.028038
  82 H :    0.031819
  83 H :    0.027565
  84 H :    0.024951
  85 H :    0.030671
  86 H :    0.018913
  87 H :    0.033242
  88 H :    0.019277
  89 H :    0.027974
  90 H :    0.025980
  91 H :    0.029416
  92 H :    0.033617
  93 H :    0.025805
  94 H :    0.027488
  95 H :    0.030318
  96 H :    0.029068
  97 H :    0.018592
  98 H :    0.033337
  99 H :    0.019797
 100 H :    0.027713
 101 H :    0.025091
 102 H :    0.068002
 103 H :    0.022423
 104 H :    0.029461
 105 H :    0.032614
 106 H :    0.025347
 107 H :    0.031598
 108 H :    0.030221
 109 H :    0.045628
 110 H :    0.048242
 111 H :    0.046376
 112 H :    0.031953
 113 H :    0.030984
 114 H :    0.028856
 115 H :    0.032422
 116 H :    0.034247
 117 H :    0.027786
 118 H :    0.034037
 119 H :    0.027614

  Mayer bond orders larger than 0.100000
B(  0-C ,  1-C ) :   1.7765 B(  0-C , 50-C ) :   0.9736 B(  0-C , 54-C ) :   0.9466
B(  1-C , 18-C ) :   1.1231 B(  1-C , 69-H ) :   0.9547 B(  2-C ,  3-S ) :   1.0908
B(  2-C ,  6-C ) :   1.4882 B(  2-C , 32-C ) :   1.1669 B(  3-S ,  4-C ) :   1.0382
B(  4-C ,  5-C ) :   1.3895 B(  4-C ,  7-C ) :   1.4118 B(  5-C ,  6-C ) :   1.2511
B(  5-C ,  9-N ) :   1.1390 B(  6-C , 70-H ) :   0.9949 B(  7-C ,  8-C ) :   1.3947
B(  7-C , 10-S ) :   1.0332 B(  8-C ,  9-N ) :   1.1387 B(  8-C , 12-C ) :   1.2391
B(  9-N , 14-C ) :   0.9449 B( 10-S , 11-C ) :   1.0948 B( 11-C , 12-C ) :   1.4947
B( 11-C , 41-C ) :   1.1557 B( 12-C , 71-H ) :   0.9976 B( 13-C , 16-C ) :   1.5232
B( 13-C , 19-S ) :   1.1360 B( 13-C , 38-C ) :   1.1268 B( 14-C , 15-C ) :   1.0901
B( 14-C , 72-H ) :   0.9562 B( 14-C , 73-H ) :   0.9564 B( 15-C , 74-H ) :   0.9706
B( 15-C , 75-H ) :   0.9720 B( 15-C , 76-H ) :   0.9705 B( 16-C , 17-C ) :   1.2883
B( 16-C , 36-C ) :   1.0447 B( 17-C , 18-C ) :   1.4711 B( 17-C , 77-H ) :   1.0031
B( 18-C , 19-S ) :   1.0905 B( 20-C , 21-C ) :   1.5996 B( 20-C , 45-C ) :   1.1053
B( 20-C , 49-C ) :   0.9699 B( 21-C , 22-C ) :   1.2146 B( 21-C , 78-H ) :   0.9286
B( 22-C , 23-S ) :   1.0857 B( 22-C , 26-C ) :   1.4172 B( 23-S , 24-C ) :   1.1723
B( 24-C , 25-C ) :   1.4664 B( 24-C , 29-C ) :   1.1330 B( 25-C , 26-C ) :   1.3321
B( 25-C , 27-C ) :   1.0469 B( 26-C , 79-H ) :   0.9830 B( 27-C , 28-C ) :   1.0883
B( 27-C , 80-H ) :   0.9298 B( 27-C , 81-H ) :   0.9322 B( 28-C , 82-H ) :   0.9683
B( 28-C , 83-H ) :   0.9729 B( 28-C , 84-H ) :   0.9746 B( 29-C , 30-C ) :   1.4960
B( 29-C , 32-C ) :   0.1003 B( 29-C , 33-S ) :   1.1086 B( 30-C , 31-C ) :   1.2896
B( 30-C , 85-H ) :   0.9963 B( 31-C , 32-C ) :   1.5171 B( 31-C , 34-C ) :   1.0510
B( 32-C , 33-S ) :   1.1334 B( 34-C , 35-C ) :   1.0865 B( 34-C , 86-H ) :   0.9230
B( 34-C , 87-H ) :   0.9302 B( 35-C , 88-H ) :   0.9710 B( 35-C , 89-H ) :   0.9726
B( 35-C , 90-H ) :   0.9705 B( 36-C , 37-C ) :   1.0893 B( 36-C , 91-H ) :   0.9316
B( 36-C , 92-H ) :   0.9324 B( 37-C , 93-H ) :   0.9740 B( 37-C , 94-H ) :   0.9730
B( 37-C , 95-H ) :   0.9681 B( 38-C , 39-C ) :   1.5157 B( 38-C , 42-S ) :   1.1127
B( 39-C , 40-C ) :   1.2684 B( 39-C , 96-H ) :   0.9963 B( 40-C , 41-C ) :   1.5402
B( 40-C , 43-C ) :   1.0527 B( 41-C , 42-S ) :   1.1224 B( 43-C , 44-C ) :   1.0852
B( 43-C , 97-H ) :   0.9245 B( 43-C , 98-H ) :   0.9298 B( 44-C , 99-H ) :   0.9703
B( 44-C ,100-H ) :   0.9723 B( 44-C ,101-H ) :   0.9719 B( 45-C , 46-C ) :   1.6447
B( 45-C , 60-C ) :   1.0970 B( 46-C , 47-C ) :   0.9634 B( 46-C , 59-C ) :   1.1386
B( 47-C , 48-N ) :   1.0504 B( 47-C , 58-O ) :   2.1538 B( 48-N , 49-C ) :   1.0947
B( 48-N , 56-C ) :   0.9052 B( 49-C , 55-O ) :   2.0148 B( 50-C , 51-N ) :   1.0114
B( 50-C , 66-O ) :   2.1047 B( 51-N , 52-C ) :   1.0756 B( 51-N , 64-C ) :   0.9015
B( 52-C , 53-C ) :   0.9437 B( 52-C , 63-O ) :   2.1403 B( 53-C , 54-C ) :   1.0360
B( 53-C , 62-C ) :   1.0217 B( 53-C ,102-H ) :   0.8651 B( 54-C , 61-C ) :   1.0635
B( 54-C ,103-H ) :   0.9028 B( 56-C , 57-C ) :   1.1154 B( 56-C ,104-H ) :   0.9427
B( 56-C ,105-H ) :   0.9412 B( 57-C ,106-H ) :   0.9697 B( 57-C ,107-H ) :   0.9753
B( 57-C ,108-H ) :   0.9695 B( 59-C , 67-N ) :   2.9847 B( 60-C ,109-H ) :   0.9389
B( 60-C ,110-H ) :   0.9362 B( 60-C ,111-H ) :   0.9304 B( 61-C ,112-H ) :   0.9621
B( 61-C ,113-H ) :   0.9650 B( 61-C ,114-H ) :   0.9564 B( 62-C , 68-N ) :   3.1122
B( 64-C , 65-C ) :   1.1067 B( 64-C ,115-H ) :   0.9483 B( 64-C ,116-H ) :   0.9422
B( 65-C ,117-H ) :   0.9708 B( 65-C ,118-H ) :   0.9747 B( 65-C ,119-H ) :   0.9699

-----------------------------------------------------------------------------
         ABSORPTION SPECTRUM VIA TRANSITION ELECTRIC DIPOLE MOMENTS
-----------------------------------------------------------------------------
State   Energy  Wavelength   fosc         T2         TX        TY        TZ
        (cm-1)    (nm)                  (au**2)     (au)      (au)      (au)
-----------------------------------------------------------------------------
   0   18628.9    536.8   3.247576082  57.39153   5.70748  -4.49260   2.15238
   1   24762.6    403.8   0.924047551  12.28497  -1.40917  -2.34974  -2.18585
   2   30624.7    326.5   0.058534136   0.62923  -0.55662   0.53843   0.17176
   3   32090.0    311.6   0.064365933   0.66033  -0.01213  -0.78048   0.22593
   4   34766.5    287.6   0.045471329   0.43058   0.36525  -0.43060   0.33430
   5   35375.4    282.7   0.072295572   0.67280   0.42442   0.35724   0.60419
   6   35791.4    279.4   0.023593646   0.21702  -0.21386   0.40128   0.10127
   7   36973.1    270.5   0.048797003   0.43449   0.23574  -0.61535  -0.01638
   8   38491.7    259.8   0.240273691   2.05501   0.04072   1.33949   0.50904
   9   39593.8    252.6   0.131091916   1.08999   0.20887  -1.00269  -0.20241

Dispersion correction           -0.068603857
FINAL SINGLE POINT ENERGY     -5048.903331137421

DIPOLE MOMENT
-------------
                                X             Y             Z
Electronic contribution:     12.21670     -22.99010      -7.89705
Nuclear contribution   :    -12.64880      27.66815       8.40166
                        -----------------------------------------
Total Dipole Moment    :     -0.43210       4.67805       0.50460
                        -----------------------------------------
Magnitude (a.u.)       :      4.72499
Magnitude (Debye)      :     12.00996

Rotational constants in cm-1:     0.001378     0.000203     0.000180
Rotational constants in MHz :    41.306112     6.091890     5.408359

                             ****ORCA TERMINATED NORMALLY****
TOTAL RUN TIME: 0 days 0 hours 20 minutes 56 seconds 655 msec
