                         Program Version 4.2.0 -  RELEASE  -
|  1> # ORCA input file
|  2> # SCF done       -196.934919114248          0.000534232327
|  3> ! wb97x-d3 def2-SVP def2/J RIJCOSX Grid4 TightSCF
|  4> %maxcore 5000
|  5> %tddft
|  6>     Mode sTDDFT
|  7>     Ethresh 5.0
|  8>     maxcore 5000
|  9> end
| 10>
| 11> %pal
| 12>   nprocs 6
| 13>   end
| 14> * xyz 0 1
| 15>    C        2.19483        -2.46668        -0.23680
| 16>    C        2.41035        -1.95815         1.06640
| 17>    C        1.52226        -1.06882         1.66862
| 18>    C        0.39485        -0.71842         0.96205
| 19>    C        0.15341        -1.27898        -0.31648
| 20>    C        1.06118        -2.13328        -0.93813
| 21>    C        3.30855        -3.41255        -0.64143
| 22>    C        4.13174        -3.43686         0.61634
| 23>    C        3.59760        -2.57554         1.56716
| 24>    C        5.23906        -4.12843         1.07966
| 25>    C        5.55451        -3.80430         2.39469
| 26>    S        4.47097        -2.59260         3.04541
| 27>    C       -0.75569         0.17895         1.38265
| 28>    C       -1.73422        -0.06633         0.26321
| 29>    C       -1.15539        -0.86707        -0.70981
| 30>    C       -3.04436         0.29013        -0.02973
| 31>    C       -3.48998        -0.25757        -1.22185
| 32>    S       -2.22491        -1.20540        -2.00151
| 33>    C        6.56106        -4.39690         3.21041
| 34>    C       -4.79201        -0.21166        -1.80939
| 35>    C        2.77059        -4.81076        -0.99425
| 36>    C        4.10934        -2.85107        -1.83231
| 37>    C        7.37075        -5.44441         2.77673
| 38>    C        8.27416        -6.07936         3.61150
| 39>    C        8.44733        -5.70883         4.94344
| 40>    C        7.67948        -4.59405         5.41443
| 41>    C        6.74425        -3.95607         4.55760
| 42>    C       -5.09890        -1.00938        -2.90850
| 43>    C       -6.36694        -1.09027        -3.45502
| 44>    C       -7.43286        -0.35862        -2.94142
| 45>    C       -7.14868         0.53465        -1.85608
| 46>    C       -5.84508         0.60976        -1.28889
| 47>    C        9.30277        -6.33509         5.89669
| 48>    C       10.06456        -7.46201         5.87506
| 49>    C       -8.78897        -0.41119        -3.38111
| 50>    C       -9.45596        -1.19473        -4.27026
| 51>    C       -9.04733        -2.29873        -5.13376
| 52>    N      -10.14086        -2.82529        -5.81298
| 53>    C      -11.34631        -2.24632        -5.57624
| 54>    S      -11.19372        -0.92562        -4.44701
| 55>    C       10.31271        -8.48070         4.85994
| 56>    N       11.11691        -9.49627         5.36585
| 57>    C       11.52598        -9.36949         6.65469
| 58>    S       10.92495        -7.89064         7.35781
| 59>    C       11.41862       -10.63155         4.51270
| 60>    O        9.91524        -8.50858         3.71345
| 61>    C       12.31092       -10.22145         7.39142
| 62>    O       -7.93261        -2.74946        -5.29660
| 63>    C       -9.93325        -3.97464        -6.67541
| 64>    C      -12.57024        -2.56999        -6.10720
| 65>    C       10.45170       -11.78457         4.75416
| 66>    C      -10.23697        -5.27997        -5.94978
| 67>    N        7.83241        -4.15866         6.67797
| 68>    C        7.10306        -3.15078         7.08110
| 69>    C        6.17127        -2.52662         6.23599
| 70>    N        6.00760        -2.92977         5.00321
| 71>    N       -8.14158         1.30185        -1.37001
| 72>    C       -7.87679         2.11426        -0.38138
| 73>    C       -6.58963         2.19617         0.17093
| 74>    N       -5.60550         1.45961        -0.27529
| 75>    C       -1.33388        -0.20993         2.75049
| 76>    C       12.63016        -9.88565         8.72402
| 77>    C       12.85318       -11.44659         6.96888
| 78>    C      -13.70540        -1.82238        -5.72901
| 79>    C      -12.84879        -3.60430        -7.01624
| 80>    N      -13.15029        -4.43419        -7.75131
| 81>    N      -14.63657        -1.22389        -5.42823
| 82>    N       12.89595        -9.62444         9.80889
| 83>    N       13.32000       -12.45984         6.69467
| 84>    C       -0.36174         1.67402         1.33081
| 85>    C        1.95987        -5.43763         0.13353
| 86>    C        4.67886        -1.46304        -1.56611
| 87>    C       -1.84156        -1.64706         2.78145
| 88>    C        0.75470         2.09221         2.27794
| 89>    H        1.71388        -0.70994         2.66778
| 90>    H        0.85119        -2.53294        -1.91875
| 91>    H        5.79103        -4.84723         0.50201
| 92>    H       -3.68140         0.89852         0.58353
| 93>    H        2.14760        -4.73038        -1.88705
| 94>    H        3.61733        -5.45690        -1.23516
| 95>    H        4.92526        -3.54133        -2.05689
| 96>    H        3.45268        -2.81213        -2.70375
| 97>    H        7.28256        -5.79664         1.76134
| 98>    H        8.85034        -6.90035         3.21917
| 99>    H       -4.31636        -1.61722        -3.33948
|100>    H       -6.53300        -1.75357        -4.28671
|101>    H        9.30688        -5.80351         6.84330
|102>    H       -9.40816         0.31399        -2.86206
|103>    H       11.31274       -10.27076         3.48581
|104>    H       12.44988       -10.94406         4.68165
|105>    H      -10.55119        -3.87055        -7.56822
|106>    H       -8.87767        -3.94827        -6.95995
|107>    H        9.43024       -11.46356         4.56223
|108>    H       10.69375       -12.60237         4.08224
|109>    H       10.52451       -12.14971         5.77586
|110>    H      -11.27881        -5.32404        -5.64132
|111>    H      -10.04390        -6.11439        -6.61711
|112>    H       -9.60099        -5.37802        -5.07274
|113>    H        7.25400        -2.82210         8.10029
|114>    H        5.56142        -1.69719         6.56481
|115>    H       -8.69570         2.71928        -0.01669
|116>    H       -6.35928         2.87237         0.98322
|117>    H       -0.56228        -0.09004         3.51142
|118>    H       -2.15379         0.47105         2.98790
|119>    H       -0.05723         1.90496         0.30661
|120>    H       -1.25847         2.25865         1.54833
|121>    H        1.10203        -4.81639         0.38125
|122>    H        1.59938        -6.41860        -0.16659
|123>    H        2.56834        -5.55431         1.02744
|124>    H        5.35288        -1.47940        -0.71271
|125>    H        5.23330        -1.11498        -2.43439
|126>    H        3.88107        -0.75309        -1.35961
|127>    H       -1.03897        -2.34219         2.54394
|128>    H       -2.22324        -1.88771         3.77083
|129>    H       -2.64380        -1.78972         2.06100
|130>    H        1.67897         1.57199         2.04181
|131>    H        0.93196         3.16049         2.17417
|132>    H        0.49206         1.89467         3.31366
|133> *
|134>
|135>                          ****END OF INPUT****

CARTESIAN COORDINATES (ANGSTROEM)
---------------------------------
  C      2.194830   -2.466680   -0.236800
  C      2.410350   -1.958150    1.066400
  C      1.522260   -1.068820    1.668620
  C      0.394850   -0.718420    0.962050
  C      0.153410   -1.278980   -0.316480
  C      1.061180   -2.133280   -0.938130
  C      3.308550   -3.412550   -0.641430
  C      4.131740   -3.436860    0.616340
  C      3.597600   -2.575540    1.567160
  C      5.239060   -4.128430    1.079660
  C      5.554510   -3.804300    2.394690
  S      4.470970   -2.592600    3.045410
  C     -0.755690    0.178950    1.382650
  C     -1.734220   -0.066330    0.263210
  C     -1.155390   -0.867070   -0.709810
  C     -3.044360    0.290130   -0.029730
  C     -3.489980   -0.257570   -1.221850
  S     -2.224910   -1.205400   -2.001510
  C      6.561060   -4.396900    3.210410
  C     -4.792010   -0.211660   -1.809390
  C      2.770590   -4.810760   -0.994250
  C      4.109340   -2.851070   -1.832310
  C      7.370750   -5.444410    2.776730
  C      8.274160   -6.079360    3.611500
  C      8.447330   -5.708830    4.943440
  C      7.679480   -4.594050    5.414430
  C      6.744250   -3.956070    4.557600
  C     -5.098900   -1.009380   -2.908500
  C     -6.366940   -1.090270   -3.455020
  C     -7.432860   -0.358620   -2.941420
  C     -7.148680    0.534650   -1.856080
  C     -5.845080    0.609760   -1.288890
  C      9.302770   -6.335090    5.896690
  C     10.064560   -7.462010    5.875060
  C     -8.788970   -0.411190   -3.381110
  C     -9.455960   -1.194730   -4.270260
  C     -9.047330   -2.298730   -5.133760
  N    -10.140860   -2.825290   -5.812980
  C    -11.346310   -2.246320   -5.576240
  S    -11.193720   -0.925620   -4.447010
  C     10.312710   -8.480700    4.859940
  N     11.116910   -9.496270    5.365850
  C     11.525980   -9.369490    6.654690
  S     10.924950   -7.890640    7.357810
  C     11.418620  -10.631550    4.512700
  O      9.915240   -8.508580    3.713450
  C     12.310920  -10.221450    7.391420
  O     -7.932610   -2.749460   -5.296600
  C     -9.933250   -3.974640   -6.675410
  C    -12.570240   -2.569990   -6.107200
  C     10.451700  -11.784570    4.754160
  C    -10.236970   -5.279970   -5.949780
  N      7.832410   -4.158660    6.677970
  C      7.103060   -3.150780    7.081100
  C      6.171270   -2.526620    6.235990
  N      6.007600   -2.929770    5.003210
  N     -8.141580    1.301850   -1.370010
  C     -7.876790    2.114260   -0.381380
  C     -6.589630    2.196170    0.170930
  N     -5.605500    1.459610   -0.275290
  C     -1.333880   -0.209930    2.750490
  C     12.630160   -9.885650    8.724020
  C     12.853180  -11.446590    6.968880
  C    -13.705400   -1.822380   -5.729010
  C    -12.848790   -3.604300   -7.016240
  N    -13.150290   -4.434190   -7.751310
  N    -14.636570   -1.223890   -5.428230
  N     12.895950   -9.624440    9.808890
  N     13.320000  -12.459840    6.694670
  C     -0.361740    1.674020    1.330810
  C      1.959870   -5.437630    0.133530
  C      4.678860   -1.463040   -1.566110
  C     -1.841560   -1.647060    2.781450
  C      0.754700    2.092210    2.277940
  H      1.713880   -0.709940    2.667780
  H      0.851190   -2.532940   -1.918750
  H      5.791030   -4.847230    0.502010
  H     -3.681400    0.898520    0.583530
  H      2.147600   -4.730380   -1.887050
  H      3.617330   -5.456900   -1.235160
  H      4.925260   -3.541330   -2.056890
  H      3.452680   -2.812130   -2.703750
  H      7.282560   -5.796640    1.761340
  H      8.850340   -6.900350    3.219170
  H     -4.316360   -1.617220   -3.339480
  H     -6.533000   -1.753570   -4.286710
  H      9.306880   -5.803510    6.843300
  H     -9.408160    0.313990   -2.862060
  H     11.312740  -10.270760    3.485810
  H     12.449880  -10.944060    4.681650
  H    -10.551190   -3.870550   -7.568220
  H     -8.877670   -3.948270   -6.959950
  H      9.430240  -11.463560    4.562230
  H     10.693750  -12.602370    4.082240
  H     10.524510  -12.149710    5.775860
  H    -11.278810   -5.324040   -5.641320
  H    -10.043900   -6.114390   -6.617110
  H     -9.600990   -5.378020   -5.072740
  H      7.254000   -2.822100    8.100290
  H      5.561420   -1.697190    6.564810
  H     -8.695700    2.719280   -0.016690
  H     -6.359280    2.872370    0.983220
  H     -0.562280   -0.090040    3.511420
  H     -2.153790    0.471050    2.987900
  H     -0.057230    1.904960    0.306610
  H     -1.258470    2.258650    1.548330
  H      1.102030   -4.816390    0.381250
  H      1.599380   -6.418600   -0.166590
  H      2.568340   -5.554310    1.027440
  H      5.352880   -1.479400   -0.712710
  H      5.233300   -1.114980   -2.434390
  H      3.881070   -0.753090   -1.359610
  H     -1.038970   -2.342190    2.543940
  H     -2.223240   -1.887710    3.770830
  H     -2.643800   -1.789720    2.061000
  H      1.678970    1.571990    2.041810
  H      0.931960    3.160490    2.174170
  H      0.492060    1.894670    3.313660

 Total Charge           Charge          ....    0
 Multiplicity           Mult            ....    1
 Number of Electrons    NEL             ....  542
 Basis Dimension        Dim             .... 1272

ORBITAL ENERGIES
----------------

  NO   OCC          E(Eh)            E(eV)
   0   2.0000     -89.000867     -2421.8367
   1   2.0000     -89.000121     -2421.8164
   2   2.0000     -88.987022     -2421.4600
   3   2.0000     -88.982453     -2421.3356
   4   2.0000     -19.262471      -524.1585
   5   2.0000     -19.261620      -524.1353
   6   2.0000     -14.531492      -395.4220
   7   2.0000     -14.530613      -395.3981
   8   2.0000     -14.480006      -394.0210
   9   2.0000     -14.478204      -393.9720
  10   2.0000     -14.475168      -393.8893
  11   2.0000     -14.474507      -393.8713
  12   2.0000     -14.438509      -392.8918
  13   2.0000     -14.437896      -392.8751
  14   2.0000     -14.435590      -392.8124
  15   2.0000     -14.434982      -392.7958
  16   2.0000     -10.447535      -284.2919
  17   2.0000     -10.446624      -284.2671
  18   2.0000     -10.432713      -283.8886
  19   2.0000     -10.432010      -283.8694
  20   2.0000     -10.369515      -282.1688
  21   2.0000     -10.368587      -282.1436
  22   2.0000     -10.367947      -282.1262
  23   2.0000     -10.367513      -282.1144
  24   2.0000     -10.365639      -282.0634
  25   2.0000     -10.365530      -282.0604
  26   2.0000     -10.365405      -282.0570
  27   2.0000     -10.365323      -282.0548
  28   2.0000     -10.364839      -282.0416
  29   2.0000     -10.364530      -282.0332
  30   2.0000     -10.364178      -282.0236
  31   2.0000     -10.363586      -282.0075
  32   2.0000     -10.353563      -281.7348
  33   2.0000     -10.352722      -281.7119
  34   2.0000     -10.352512      -281.7062
  35   2.0000     -10.350928      -281.6631
  36   2.0000     -10.348305      -281.5917
  37   2.0000     -10.347760      -281.5769
  38   2.0000     -10.343713      -281.4667
  39   2.0000     -10.343118      -281.4505
  40   2.0000     -10.342056      -281.4217
  41   2.0000     -10.341037      -281.3939
  42   2.0000     -10.338104      -281.3141
  43   2.0000     -10.337556      -281.2992
  44   2.0000     -10.334958      -281.2285
  45   2.0000     -10.333560      -281.1905
  46   2.0000     -10.332994      -281.1751
  47   2.0000     -10.326626      -281.0018
  48   2.0000     -10.325510      -280.9714
  49   2.0000     -10.324656      -280.9482
  50   2.0000     -10.323332      -280.9121
  51   2.0000     -10.323144      -280.9070
  52   2.0000     -10.322751      -280.8963
  53   2.0000     -10.320796      -280.8431
  54   2.0000     -10.320071      -280.8234
  55   2.0000     -10.317692      -280.7587
  56   2.0000     -10.317515      -280.7539
  57   2.0000     -10.313610      -280.6476
  58   2.0000     -10.312372      -280.6139
  59   2.0000     -10.312096      -280.6064
  60   2.0000     -10.311726      -280.5963
  61   2.0000     -10.309912      -280.5470
  62   2.0000     -10.304668      -280.4043
  63   2.0000     -10.303021      -280.3595
  64   2.0000     -10.302884      -280.3557
  65   2.0000     -10.302574      -280.3473
  66   2.0000     -10.301949      -280.3303
  67   2.0000     -10.301874      -280.3282
  68   2.0000     -10.300973      -280.3037
  69   2.0000     -10.300295      -280.2853
  70   2.0000     -10.289122      -279.9813
  71   2.0000     -10.284248      -279.8486
  72   2.0000     -10.283063      -279.8164
  73   2.0000     -10.282433      -279.7992
  74   2.0000      -8.115856      -220.8437
  75   2.0000      -8.115052      -220.8218
  76   2.0000      -8.100348      -220.4217
  77   2.0000      -8.093886      -220.2458
  78   2.0000      -6.076039      -165.3374
  79   2.0000      -6.075221      -165.3152
  80   2.0000      -6.071978      -165.2269
  81   2.0000      -6.071192      -165.2055
  82   2.0000      -6.066169      -165.0688
  83   2.0000      -6.065374      -165.0472
  84   2.0000      -6.059801      -164.8956
  85   2.0000      -6.055816      -164.7871
  86   2.0000      -6.053607      -164.7270
  87   2.0000      -6.052725      -164.7030
  88   2.0000      -6.048954      -164.6004
  89   2.0000      -6.046422      -164.5315
  90   2.0000      -1.209798       -32.9203
  91   2.0000      -1.209027       -32.8993
  92   2.0000      -1.138547       -30.9814
  93   2.0000      -1.135442       -30.8970
  94   2.0000      -1.134622       -30.8746
  95   2.0000      -1.133622       -30.8474
  96   2.0000      -1.063026       -28.9264
  97   2.0000      -1.057208       -28.7681
  98   2.0000      -1.046794       -28.4847
  99   2.0000      -1.037579       -28.2340
 100   2.0000      -1.037220       -28.2242
 101   2.0000      -1.036547       -28.2059
 102   2.0000      -1.020104       -27.7584
 103   2.0000      -1.019420       -27.7398
 104   2.0000      -1.015728       -27.6394
 105   2.0000      -1.012161       -27.5423
 106   2.0000      -1.001149       -27.2427
 107   2.0000      -0.997665       -27.1479
 108   2.0000      -0.989283       -26.9198
 109   2.0000      -0.975704       -26.5503
 110   2.0000      -0.961452       -26.1625
 111   2.0000      -0.960367       -26.1329
 112   2.0000      -0.944905       -25.7122
 113   2.0000      -0.936245       -25.4765
 114   2.0000      -0.933960       -25.4143
 115   2.0000      -0.916977       -24.9522
 116   2.0000      -0.911709       -24.8089
 117   2.0000      -0.909089       -24.7376
 118   2.0000      -0.901020       -24.5180
 119   2.0000      -0.895732       -24.3741
 120   2.0000      -0.880725       -23.9657
 121   2.0000      -0.878099       -23.8943
 122   2.0000      -0.877957       -23.8904
 123   2.0000      -0.874617       -23.7995
 124   2.0000      -0.870985       -23.7007
 125   2.0000      -0.868724       -23.6392
 126   2.0000      -0.865772       -23.5589
 127   2.0000      -0.858652       -23.3651
 128   2.0000      -0.837155       -22.7801
 129   2.0000      -0.829679       -22.5767
 130   2.0000      -0.811345       -22.0778
 131   2.0000      -0.808872       -22.0105
 132   2.0000      -0.807076       -21.9617
 133   2.0000      -0.805320       -21.9139
 134   2.0000      -0.797747       -21.7078
 135   2.0000      -0.793047       -21.5799
 136   2.0000      -0.790571       -21.5125
 137   2.0000      -0.789272       -21.4772
 138   2.0000      -0.784664       -21.3518
 139   2.0000      -0.777430       -21.1549
 140   2.0000      -0.760120       -20.6839
 141   2.0000      -0.748081       -20.3563
 142   2.0000      -0.738169       -20.0866
 143   2.0000      -0.732793       -19.9403
 144   2.0000      -0.727155       -19.7869
 145   2.0000      -0.724795       -19.7227
 146   2.0000      -0.723741       -19.6940
 147   2.0000      -0.714357       -19.4387
 148   2.0000      -0.712717       -19.3940
 149   2.0000      -0.705187       -19.1891
 150   2.0000      -0.691119       -18.8063
 151   2.0000      -0.689254       -18.7556
 152   2.0000      -0.686572       -18.6826
 153   2.0000      -0.684670       -18.6308
 154   2.0000      -0.680885       -18.5278
 155   2.0000      -0.672009       -18.2863
 156   2.0000      -0.671435       -18.2707
 157   2.0000      -0.669468       -18.2171
 158   2.0000      -0.664948       -18.0942
 159   2.0000      -0.656735       -17.8707
 160   2.0000      -0.651967       -17.7409
 161   2.0000      -0.645972       -17.5778
 162   2.0000      -0.643443       -17.5090
 163   2.0000      -0.636854       -17.3297
 164   2.0000      -0.631367       -17.1804
 165   2.0000      -0.623601       -16.9690
 166   2.0000      -0.617177       -16.7942
 167   2.0000      -0.616427       -16.7738
 168   2.0000      -0.608561       -16.5598
 169   2.0000      -0.607482       -16.5304
 170   2.0000      -0.601827       -16.3765
 171   2.0000      -0.599290       -16.3075
 172   2.0000      -0.593107       -16.1393
 173   2.0000      -0.589589       -16.0435
 174   2.0000      -0.588144       -16.0042
 175   2.0000      -0.586618       -15.9627
 176   2.0000      -0.584741       -15.9116
 177   2.0000      -0.584321       -15.9002
 178   2.0000      -0.582173       -15.8417
 179   2.0000      -0.578831       -15.7508
 180   2.0000      -0.577030       -15.7018
 181   2.0000      -0.571369       -15.5477
 182   2.0000      -0.568899       -15.4805
 183   2.0000      -0.567675       -15.4472
 184   2.0000      -0.564857       -15.3705
 185   2.0000      -0.560967       -15.2647
 186   2.0000      -0.560767       -15.2592
 187   2.0000      -0.558687       -15.2026
 188   2.0000      -0.555712       -15.1217
 189   2.0000      -0.554824       -15.0975
 190   2.0000      -0.550198       -14.9716
 191   2.0000      -0.549009       -14.9393
 192   2.0000      -0.539587       -14.6829
 193   2.0000      -0.539048       -14.6683
 194   2.0000      -0.536787       -14.6067
 195   2.0000      -0.533835       -14.5264
 196   2.0000      -0.531532       -14.4637
 197   2.0000      -0.524404       -14.2698
 198   2.0000      -0.521683       -14.1957
 199   2.0000      -0.520830       -14.1725
 200   2.0000      -0.517240       -14.0748
 201   2.0000      -0.516532       -14.0556
 202   2.0000      -0.514258       -13.9937
 203   2.0000      -0.509971       -13.8770
 204   2.0000      -0.507770       -13.8171
 205   2.0000      -0.507087       -13.7985
 206   2.0000      -0.505593       -13.7579
 207   2.0000      -0.505165       -13.7462
 208   2.0000      -0.503597       -13.7036
 209   2.0000      -0.499106       -13.5814
 210   2.0000      -0.497469       -13.5368
 211   2.0000      -0.494648       -13.4601
 212   2.0000      -0.491364       -13.3707
 213   2.0000      -0.490938       -13.3591
 214   2.0000      -0.490087       -13.3359
 215   2.0000      -0.489679       -13.3248
 216   2.0000      -0.485858       -13.2209
 217   2.0000      -0.485204       -13.2031
 218   2.0000      -0.480168       -13.0660
 219   2.0000      -0.479346       -13.0437
 220   2.0000      -0.477721       -12.9994
 221   2.0000      -0.475834       -12.9481
 222   2.0000      -0.474878       -12.9221
 223   2.0000      -0.472491       -12.8571
 224   2.0000      -0.471681       -12.8351
 225   2.0000      -0.469696       -12.7811
 226   2.0000      -0.469035       -12.7631
 227   2.0000      -0.468755       -12.7555
 228   2.0000      -0.466377       -12.6908
 229   2.0000      -0.465738       -12.6734
 230   2.0000      -0.465158       -12.6576
 231   2.0000      -0.463062       -12.6006
 232   2.0000      -0.462252       -12.5785
 233   2.0000      -0.460672       -12.5355
 234   2.0000      -0.455486       -12.3944
 235   2.0000      -0.452527       -12.3139
 236   2.0000      -0.451857       -12.2956
 237   2.0000      -0.449979       -12.2445
 238   2.0000      -0.448181       -12.1956
 239   2.0000      -0.447463       -12.1761
 240   2.0000      -0.444056       -12.0834
 241   2.0000      -0.442734       -12.0474
 242   2.0000      -0.441092       -12.0027
 243   2.0000      -0.437900       -11.9159
 244   2.0000      -0.434930       -11.8350
 245   2.0000      -0.434288       -11.8176
 246   2.0000      -0.433988       -11.8094
 247   2.0000      -0.433022       -11.7831
 248   2.0000      -0.429892       -11.6979
 249   2.0000      -0.426951       -11.6179
 250   2.0000      -0.420351       -11.4383
 251   2.0000      -0.416840       -11.3428
 252   2.0000      -0.413036       -11.2393
 253   2.0000      -0.412665       -11.2292
 254   2.0000      -0.400892       -10.9088
 255   2.0000      -0.399641       -10.8748
 256   2.0000      -0.394779       -10.7425
 257   2.0000      -0.380817       -10.3625
 258   2.0000      -0.377393       -10.2694
 259   2.0000      -0.375320       -10.2130
 260   2.0000      -0.365757        -9.9527
 261   2.0000      -0.363653        -9.8955
 262   2.0000      -0.361999        -9.8505
 263   2.0000      -0.357684        -9.7331
 264   2.0000      -0.352870        -9.6021
 265   2.0000      -0.350548        -9.5389
 266   2.0000      -0.346644        -9.4327
 267   2.0000      -0.329953        -8.9785
 268   2.0000      -0.315136        -8.5753
 269   2.0000      -0.292839        -7.9685
 270   2.0000      -0.262322        -7.1382
 271   0.0000      -0.072788        -1.9807
 272   0.0000      -0.062851        -1.7103
 273   0.0000      -0.021278        -0.5790
 274   0.0000      -0.017731        -0.4825
 275   0.0000      -0.002530        -0.0688

MULLIKEN ATOMIC CHARGES
-----------------------
   0 C :   -0.008898
   1 C :    0.034277
   2 C :   -0.093958
   3 C :    0.005846
   4 C :    0.030013
   5 C :   -0.089016
   6 C :   -0.220081
   7 C :    0.015676
   8 C :   -0.017317
   9 C :   -0.048695
  10 C :   -0.105489
  11 S :    0.166706
  12 C :   -0.206777
  13 C :    0.023364
  14 C :   -0.030972
  15 C :   -0.027513
  16 C :   -0.128166
  17 S :    0.112696
  18 C :    0.128144
  19 C :    0.140598
  20 C :    0.027815
  21 C :    0.038226
  22 C :   -0.068243
  23 C :   -0.010729
  24 C :   -0.016119
  25 C :    0.013122
  26 C :   -0.018246
  27 C :   -0.071691
  28 C :   -0.022957
  29 C :   -0.008867
  30 C :    0.008000
  31 C :   -0.034613
  32 C :    0.062026
  33 C :   -0.208377
  34 C :    0.060740
  35 C :   -0.208424
  36 C :    0.331672
  37 N :   -0.300728
  38 C :    0.173999
  39 S :    0.145056
  40 C :    0.332847
  41 N :   -0.302111
  42 C :    0.175092
  43 S :    0.145234
  44 C :    0.047565
  45 O :   -0.223738
  46 C :   -0.362270
  47 O :   -0.223082
  48 C :    0.046961
  49 C :   -0.357462
  50 C :   -0.037421
  51 C :   -0.039028
  52 N :   -0.084773
  53 C :    0.038008
  54 C :    0.044764
  55 N :   -0.115796
  56 N :   -0.087009
  57 C :    0.039755
  58 C :    0.034253
  59 N :   -0.080897
  60 C :    0.012012
  61 C :   -0.156411
  62 C :   -0.128417
  63 C :   -0.155808
  64 C :   -0.128459
  65 N :    0.115550
  66 N :    0.098804
  67 N :    0.099893
  68 N :    0.119224
  69 C :    0.043401
  70 C :   -0.013776
  71 C :   -0.021517
  72 C :   -0.016405
  73 C :   -0.015291
  74 H :   -0.014305
  75 H :   -0.014956
  76 H :    0.000575
  77 H :    0.013460
  78 H :    0.022208
  79 H :    0.021321
  80 H :    0.021908
  81 H :    0.022436
  82 H :    0.007515
  83 H :    0.034704
  84 H :    0.024960
  85 H :    0.036917
  86 H :    0.040241
  87 H :    0.041548
  88 H :    0.071696
  89 H :    0.077312
  90 H :    0.078118
  91 H :    0.071103
  92 H :    0.044114
  93 H :    0.058614
  94 H :    0.054881
  95 H :    0.055632
  96 H :    0.058645
  97 H :    0.044792
  98 H :    0.047487
  99 H :    0.042803
 100 H :    0.045787
 101 H :    0.040466
 102 H :    0.028981
 103 H :    0.023585
 104 H :    0.028676
 105 H :    0.022139
 106 H :    0.038493
 107 H :    0.031957
 108 H :    0.038621
 109 H :    0.041692
 110 H :    0.032944
 111 H :    0.039810
 112 H :    0.038423
 113 H :    0.031713
 114 H :    0.040276
 115 H :    0.037001
 116 H :    0.037917
 117 H :    0.022003
Sum of atomic charges:   -0.0000000

LOEWDIN ATOMIC CHARGES
----------------------
   0 C :    0.006102
   1 C :   -0.033663
   2 C :   -0.025722
   3 C :    0.005325
   4 C :   -0.031972
   5 C :   -0.026600
   6 C :   -0.040851
   7 C :   -0.049391
   8 C :   -0.179625
   9 C :   -0.038464
  10 C :   -0.178052
  11 S :    0.468863
  12 C :   -0.038557
  13 C :   -0.045963
  14 C :   -0.169719
  15 C :   -0.029555
  16 C :   -0.169475
  17 S :    0.427108
  18 C :   -0.007905
  19 C :   -0.008625
  20 C :   -0.016683
  21 C :   -0.014382
  22 C :   -0.021361
  23 C :    0.029650
  24 C :   -0.066056
  25 C :    0.012035
  26 C :   -0.015671
  27 C :   -0.031762
  28 C :    0.028494
  29 C :   -0.064089
  30 C :    0.012476
  31 C :   -0.008010
  32 C :    0.034099
  33 C :   -0.216692
  34 C :    0.034210
  35 C :   -0.216205
  36 C :    0.087875
  37 N :   -0.008793
  38 C :   -0.023913
  39 S :    0.417037
  40 C :    0.087928
  41 N :   -0.008832
  42 C :   -0.023888
  43 S :    0.417115
  44 C :    0.040415
  45 O :   -0.171141
  46 C :   -0.227198
  47 O :   -0.170071
  48 C :    0.040209
  49 C :   -0.227261
  50 C :   -0.057541
  51 C :   -0.057863
  52 N :   -0.044445
  53 C :    0.017386
  54 C :    0.012984
  55 N :   -0.048815
  56 N :   -0.045604
  57 C :    0.015385
  58 C :    0.005610
  59 N :   -0.030439
  60 C :   -0.019595
  61 C :   -0.034648
  62 C :   -0.027561
  63 C :   -0.034664
  64 C :   -0.027360
  65 N :   -0.068808
  66 N :   -0.057806
  67 N :   -0.057546
  68 N :   -0.068338
  69 C :   -0.011892
  70 C :   -0.059590
  71 C :   -0.060397
  72 C :   -0.058449
  73 C :   -0.062691
  74 H :    0.028524
  75 H :    0.028980
  76 H :    0.029854
  77 H :    0.030200
  78 H :    0.022107
  79 H :    0.022743
  80 H :    0.022757
  81 H :    0.022554
  82 H :    0.034965
  83 H :    0.036040
  84 H :    0.027216
  85 H :    0.036273
  86 H :    0.042808
  87 H :    0.042516
  88 H :    0.040339
  89 H :    0.038514
  90 H :    0.038551
  91 H :    0.040308
  92 H :    0.031040
  93 H :    0.041385
  94 H :    0.031161
  95 H :    0.031223
  96 H :    0.041388
  97 H :    0.031191
  98 H :    0.033131
  99 H :    0.032198
 100 H :    0.032619
 101 H :    0.030144
 102 H :    0.021337
 103 H :    0.024144
 104 H :    0.029553
 105 H :    0.023449
 106 H :    0.026873
 107 H :    0.026775
 108 H :    0.026834
 109 H :    0.027390
 110 H :    0.027059
 111 H :    0.027249
 112 H :    0.027077
 113 H :    0.026526
 114 H :    0.027023
 115 H :    0.025735
 116 H :    0.030819
 117 H :    0.021320

  Mayer bond orders larger than 0.100000
B(  0-C ,  1-C ) :   1.3682 B(  0-C ,  5-C ) :   1.4231 B(  0-C ,  6-C ) :   0.9033
B(  1-C ,  2-C ) :   1.3249 B(  1-C ,  8-C ) :   1.0815 B(  2-C ,  3-C ) :   1.4234
B(  2-C , 74-H ) :   1.0008 B(  3-C ,  4-C ) :   1.3797 B(  3-C , 12-C ) :   0.9081
B(  4-C ,  5-C ) :   1.3216 B(  4-C , 14-C ) :   1.0744 B(  5-C , 75-H ) :   1.0045
B(  6-C ,  7-C ) :   0.9273 B(  6-C , 20-C ) :   1.0455 B(  6-C , 21-C ) :   1.0280
B(  7-C ,  8-C ) :   1.5044 B(  7-C ,  9-C ) :   1.3400 B(  8-C , 11-S ) :   1.0729
B(  9-C , 10-C ) :   1.4451 B(  9-C , 76-H ) :   0.9988 B( 10-C , 11-S ) :   1.1159
B( 10-C , 18-C ) :   1.1314 B( 12-C , 13-C ) :   0.9444 B( 12-C , 60-C ) :   1.0331
B( 12-C , 69-C ) :   1.0036 B( 13-C , 14-C ) :   1.5229 B( 13-C , 15-C ) :   1.2779
B( 14-C , 17-S ) :   1.1114 B( 15-C , 16-C ) :   1.4779 B( 15-C , 77-H ) :   0.9973
B( 16-C , 17-S ) :   1.0977 B( 16-C , 19-C ) :   1.1354 B( 18-C , 22-C ) :   1.4022
B( 18-C , 26-C ) :   1.1834 B( 19-C , 27-C ) :   1.3945 B( 19-C , 31-C ) :   1.2023
B( 20-C , 70-C ) :   1.0885 B( 20-C , 78-H ) :   0.9452 B( 20-C , 79-H ) :   0.9463
B( 21-C , 71-C ) :   1.0875 B( 21-C , 80-H ) :   0.9491 B( 21-C , 81-H ) :   0.9481
B( 22-C , 23-C ) :   1.3067 B( 22-C , 82-H ) :   0.9998 B( 23-C , 24-C ) :   1.3894
B( 23-C , 83-H ) :   0.9763 B( 24-C , 25-C ) :   1.1897 B( 24-C , 32-C ) :   1.1969
B( 25-C , 26-C ) :   1.2357 B( 25-C , 52-N ) :   1.4723 B( 26-C , 55-N ) :   1.4295
B( 27-C , 28-C ) :   1.3148 B( 27-C , 84-H ) :   0.9892 B( 28-C , 29-C ) :   1.3951
B( 28-C , 85-H ) :   0.9768 B( 29-C , 30-C ) :   1.1876 B( 29-C , 34-C ) :   1.1934
B( 30-C , 31-C ) :   1.2310 B( 30-C , 56-N ) :   1.4690 B( 31-C , 59-N ) :   1.4759
B( 32-C , 33-C ) :   1.6934 B( 32-C , 86-H ) :   0.9287 B( 33-C , 40-C ) :   0.9475
B( 33-C , 43-S ) :   1.0224 B( 34-C , 35-C ) :   1.6975 B( 34-C , 87-H ) :   0.9275
B( 35-C , 36-C ) :   0.9464 B( 35-C , 39-S ) :   1.0225 B( 36-C , 37-N ) :   1.0572
B( 36-C , 47-O ) :   2.0334 B( 37-N , 38-C ) :   1.1838 B( 37-N , 48-C ) :   0.8949
B( 38-C , 39-S ) :   1.1037 B( 38-C , 49-C ) :   1.5420 B( 40-C , 41-N ) :   1.0574
B( 40-C , 45-O ) :   2.0321 B( 41-N , 42-C ) :   1.1831 B( 41-N , 44-C ) :   0.8935
B( 42-C , 43-S ) :   1.1041 B( 42-C , 46-C ) :   1.5424 B( 44-C , 50-C ) :   1.1066
B( 44-C , 88-H ) :   0.9316 B( 44-C , 89-H ) :   0.9453 B( 46-C , 61-C ) :   1.1383
B( 46-C , 62-C ) :   1.1651 B( 48-C , 51-C ) :   1.1058 B( 48-C , 90-H ) :   0.9450
B( 48-C , 91-H ) :   0.9314 B( 49-C , 63-C ) :   1.1366 B( 49-C , 64-C ) :   1.1642
B( 50-C , 92-H ) :   0.9663 B( 50-C , 93-H ) :   0.9719 B( 50-C , 94-H ) :   0.9688
B( 51-C , 95-H ) :   0.9687 B( 51-C , 96-H ) :   0.9723 B( 51-C , 97-H ) :   0.9664
B( 52-N , 53-C ) :   1.6310 B( 53-C , 54-C ) :   1.2483 B( 53-C , 98-H ) :   0.9774
B( 54-C , 55-N ) :   1.6106 B( 54-C , 99-H ) :   0.9768 B( 56-N , 57-C ) :   1.6325
B( 57-C , 58-C ) :   1.2459 B( 57-C ,100-H ) :   0.9771 B( 58-C , 59-N ) :   1.6182
B( 58-C ,101-H ) :   0.9762 B( 60-C , 72-C ) :   1.0919 B( 60-C ,102-H ) :   0.9442
B( 60-C ,103-H ) :   0.9475 B( 61-C , 67-N ) :   3.0211 B( 62-C , 68-N ) :   2.9816
B( 63-C , 66-N ) :   3.0210 B( 64-C , 65-N ) :   2.9798 B( 69-C , 73-C ) :   1.1012
B( 69-C ,104-H ) :   0.9464 B( 69-C ,105-H ) :   0.9463 B( 70-C ,106-H ) :   0.9668
B( 70-C ,107-H ) :   0.9703 B( 70-C ,108-H ) :   0.9676 B( 71-C ,109-H ) :   0.9679
B( 71-C ,110-H ) :   0.9701 B( 71-C ,111-H ) :   0.9670 B( 72-C ,112-H ) :   0.9674
B( 72-C ,113-H ) :   0.9708 B( 72-C ,114-H ) :   0.9666 B( 73-C ,115-H ) :   0.9639
B( 73-C ,116-H ) :   0.9668 B( 73-C ,117-H ) :   0.9672

-----------------------------------------------------------------------------
         ABSORPTION SPECTRUM VIA TRANSITION ELECTRIC DIPOLE MOMENTS
-----------------------------------------------------------------------------
State   Energy  Wavelength   fosc         T2         TX        TY        TZ
        (cm-1)    (nm)                  (au**2)     (au)      (au)      (au)
-----------------------------------------------------------------------------
   0   18134.1    551.4   3.258183480  59.15003   6.50945  -2.19806   3.45625
   1   22861.1    437.4   0.391326367   5.63530   0.96945   2.15946   0.17943
   2   30240.2    330.7   0.025121981   0.27349   0.14703   0.07047   0.49690
   3   31470.8    317.8   0.298465274   3.12221   0.48990  -1.68138  -0.23484
   4   32137.5    311.2   0.498674582   5.10835  -1.87934   0.74899  -1.00769
   5   32877.6    304.2   0.276502899   2.76870   0.66434   1.30187   0.79529
   6   34521.2    289.7   0.005776737   0.05509  -0.05709   0.20976   0.08850
   7   36344.9    275.1   0.019296816   0.17479  -0.08594   0.36326   0.18827
   8   37387.3    267.5   0.027627296   0.24327  -0.08464  -0.00938  -0.48582
   9   37433.4    267.1   0.164935572   1.45054   0.11735  -0.79261  -0.89919
  10   38546.8    259.4   0.016967344   0.14491  -0.32089  -0.14570  -0.14392
  11   38981.8    256.5   0.017770696   0.15008   0.06938   0.16225   0.34488
  12   39300.4    254.5   0.050999657   0.42721   0.48199  -0.37459   0.23364
  13   39933.0    250.4   0.007307958   0.06025  -0.19875  -0.08482   0.11642

Dispersion correction           -0.072613247
FINAL SINGLE POINT ENERGY     -4523.925113471674

DIPOLE MOMENT
-------------
                                X             Y             Z
Electronic contribution:    -11.15391      -4.57560      10.65055
Nuclear contribution   :     12.10470       7.65322     -10.39470
                        -----------------------------------------
Total Dipole Moment    :      0.95079       3.07762       0.25585
                        -----------------------------------------
Magnitude (a.u.)       :      3.23129
Magnitude (Debye)      :      8.21328

Rotational constants in cm-1:     0.001872     0.000181     0.000171
Rotational constants in MHz :    56.135551     5.413650     5.134412

                             ****ORCA TERMINATED NORMALLY****
TOTAL RUN TIME: 0 days 0 hours 12 minutes 13 seconds 98 msec
