                         Program Version 4.2.0 -  RELEASE  -
|  1> # ORCA input file
|  2> # SCF done       -182.809778830911          0.000308361972
|  3> ! wb97x-d3 def2-SVP def2/J RIJCOSX Grid4 TightSCF
|  4> %maxcore 5000
|  5> %tddft
|  6>     Mode sTDDFT
|  7>     Ethresh 5.0
|  8>     maxcore 5000
|  9> end
| 10>
| 11> %pal
| 12>   nprocs 6
| 13>   end
| 14> * xyz 0 1
| 15>    C       -4.33823         1.47897         0.19005
| 16>    C       -3.10491         1.99267        -0.25729
| 17>    C       -1.97519         1.19640        -0.11098
| 18>    C       -2.01802        -0.11776         0.43836
| 19>    C       -3.24657        -0.61983         0.91019
| 20>    C       -4.37799         0.16961         0.74821
| 21>    S       -0.34672         1.71069        -0.53951
| 22>    C        0.26446         0.16644        -0.08207
| 23>    C       -0.71859        -0.71220         0.41629
| 24>    C        1.48375        -0.49952        -0.09854
| 25>    C        1.20649        -1.79969         0.39346
| 26>    N       -0.12702        -1.92078         0.69138
| 27>    S        3.13398        -0.28663        -0.53299
| 28>    C        3.46193        -1.95862        -0.06733
| 29>    C        2.32232        -2.61558         0.41180
| 30>    S       -6.00893        -0.37131         1.13288
| 31>    C       -6.63630         1.14322         0.60146
| 32>    C       -5.65038         2.04607         0.14861
| 33>    C       -7.87288         1.76330         0.49287
| 34>    C       -7.60903         3.05782        -0.01960
| 35>    N       -6.26113         3.22196        -0.20474
| 36>    S       -9.54884         1.50933         0.75414
| 37>    C       -9.89915         3.14371         0.14694
| 38>    C       -8.74531         3.83079        -0.20774
| 39>    O       -3.23458        -1.87005         1.45149
| 40>    O       -3.12195         3.25359        -0.76953
| 41>    C       -2.30800         3.61866        -1.87712
| 42>    C       -2.44837         2.68157        -3.06816
| 43>    C       -4.02188        -2.18098         2.59475
| 44>    C       -3.84720        -1.19209         3.73842
| 45>    C       -5.73082         4.47954        -0.67764
| 46>    C       -5.89578         4.61751        -2.18858
| 47>    C       -0.66586        -3.15243         1.21620
| 48>    C       -0.44932        -3.25074         2.72420
| 49>    C        4.68945        -2.62435        -0.17111
| 50>    C        5.90819        -2.19657        -0.63809
| 51>    C        6.21752        -0.84681        -1.11918
| 52>    C        7.64345        -0.87101        -1.50742
| 53>    C        8.16666        -2.15569        -1.27984
| 54>    C        7.10567        -3.00666        -0.73922
| 55>    C        8.40930         0.15597        -2.01917
| 56>    C        9.73479        -0.13680        -2.30392
| 57>    C       10.28004        -1.39371        -2.09035
| 58>    C        9.49721        -2.41608        -1.57467
| 59>    C      -11.25348         3.50829         0.12330
| 60>    C      -11.89177         4.60777        -0.39765
| 61>    C      -11.33551         5.68087        -1.24434
| 62>    C      -12.50215         6.45001        -1.73054
| 63>    C      -13.68176         5.92692        -1.17730
| 64>    C      -13.32683         4.81548        -0.29684
| 65>    C      -12.50938         7.52308        -2.59832
| 66>    C      -13.74671         8.06620        -2.90843
| 67>    C      -14.92931         7.56726        -2.38327
| 68>    C      -14.90549         6.49071        -1.50938
| 69>    O      -10.17791         5.91804        -1.52936
| 70>    F      -13.80603         9.11237        -3.75012
| 71>    C      -14.20549         4.15495         0.52190
| 72>    C      -15.59130         4.41717         0.56757
| 73>    C      -13.87631         3.15799         1.46553
| 74>    N      -16.72577         4.57122         0.65213
| 75>    N      -13.70255         2.36174         2.27501
| 76>    O        5.47148         0.11178        -1.18933
| 77>    F       10.52181         0.82996        -2.80513
| 78>    C        7.24894        -4.33137        -0.41325
| 79>    C        8.45058        -5.05707        -0.55497
| 80>    C        6.23979        -5.17185         0.10062
| 81>    N        5.48009        -5.92635         0.51824
| 82>    N        9.39174        -5.70864        -0.64346
| 83>    H        2.35250        -3.63966         0.73859
| 84>    H       -8.77196         4.83345        -0.59048
| 85>    H       -2.67595         4.61526        -2.13684
| 86>    H       -1.25785         3.70933        -1.58119
| 87>    H       -3.49453         2.57104        -3.34487
| 88>    H       -1.90333         3.09312        -3.91232
| 89>    H       -2.04516         1.69784        -2.84200
| 90>    H       -3.65396        -3.16795         2.88875
| 91>    H       -5.08014        -2.27679         2.33006
| 92>    H       -4.25320        -0.21786         3.47780
| 93>    H       -4.37109        -1.56223         4.61454
| 94>    H       -2.79367        -1.07310         3.98228
| 95>    H       -6.28456         5.27741        -0.17386
| 96>    H       -4.68238         4.54409        -0.39696
| 97>    H       -6.94743         4.58624        -2.46281
| 98>    H       -5.47972         5.56470        -2.51945
| 99>    H       -5.37891         3.80991        -2.69980
|100>    H       -1.72592        -3.20319         0.97855
|101>    H       -0.14965        -3.97499         0.71276
|102>    H       -0.96246        -2.43785         3.23046
|103>    H       -0.83804        -4.19506         3.09446
|104>    H        0.61039        -3.19212         2.96228
|105>    H        4.63861        -3.65205         0.16762
|106>    H        7.99715         1.13761        -2.18976
|107>    H       11.31773        -1.56398        -2.33031
|108>    H        9.93398        -3.38752        -1.41343
|109>    H      -11.89705         2.76258         0.57554
|110>    H      -11.59713         7.91905        -3.01505
|111>    H      -15.86382         8.02708        -2.66363
|112>    H      -15.83143         6.11057        -1.11126
|113> *
|114>
|115>                          ****END OF INPUT****

CARTESIAN COORDINATES (ANGSTROEM)
---------------------------------
  C     -4.338230    1.478970    0.190050
  C     -3.104910    1.992670   -0.257290
  C     -1.975190    1.196400   -0.110980
  C     -2.018020   -0.117760    0.438360
  C     -3.246570   -0.619830    0.910190
  C     -4.377990    0.169610    0.748210
  S     -0.346720    1.710690   -0.539510
  C      0.264460    0.166440   -0.082070
  C     -0.718590   -0.712200    0.416290
  C      1.483750   -0.499520   -0.098540
  C      1.206490   -1.799690    0.393460
  N     -0.127020   -1.920780    0.691380
  S      3.133980   -0.286630   -0.532990
  C      3.461930   -1.958620   -0.067330
  C      2.322320   -2.615580    0.411800
  S     -6.008930   -0.371310    1.132880
  C     -6.636300    1.143220    0.601460
  C     -5.650380    2.046070    0.148610
  C     -7.872880    1.763300    0.492870
  C     -7.609030    3.057820   -0.019600
  N     -6.261130    3.221960   -0.204740
  S     -9.548840    1.509330    0.754140
  C     -9.899150    3.143710    0.146940
  C     -8.745310    3.830790   -0.207740
  O     -3.234580   -1.870050    1.451490
  O     -3.121950    3.253590   -0.769530
  C     -2.308000    3.618660   -1.877120
  C     -2.448370    2.681570   -3.068160
  C     -4.021880   -2.180980    2.594750
  C     -3.847200   -1.192090    3.738420
  C     -5.730820    4.479540   -0.677640
  C     -5.895780    4.617510   -2.188580
  C     -0.665860   -3.152430    1.216200
  C     -0.449320   -3.250740    2.724200
  C      4.689450   -2.624350   -0.171110
  C      5.908190   -2.196570   -0.638090
  C      6.217520   -0.846810   -1.119180
  C      7.643450   -0.871010   -1.507420
  C      8.166660   -2.155690   -1.279840
  C      7.105670   -3.006660   -0.739220
  C      8.409300    0.155970   -2.019170
  C      9.734790   -0.136800   -2.303920
  C     10.280040   -1.393710   -2.090350
  C      9.497210   -2.416080   -1.574670
  C    -11.253480    3.508290    0.123300
  C    -11.891770    4.607770   -0.397650
  C    -11.335510    5.680870   -1.244340
  C    -12.502150    6.450010   -1.730540
  C    -13.681760    5.926920   -1.177300
  C    -13.326830    4.815480   -0.296840
  C    -12.509380    7.523080   -2.598320
  C    -13.746710    8.066200   -2.908430
  C    -14.929310    7.567260   -2.383270
  C    -14.905490    6.490710   -1.509380
  O    -10.177910    5.918040   -1.529360
  F    -13.806030    9.112370   -3.750120
  C    -14.205490    4.154950    0.521900
  C    -15.591300    4.417170    0.567570
  C    -13.876310    3.157990    1.465530
  N    -16.725770    4.571220    0.652130
  N    -13.702550    2.361740    2.275010
  O      5.471480    0.111780   -1.189330
  F     10.521810    0.829960   -2.805130
  C      7.248940   -4.331370   -0.413250
  C      8.450580   -5.057070   -0.554970
  C      6.239790   -5.171850    0.100620
  N      5.480090   -5.926350    0.518240
  N      9.391740   -5.708640   -0.643460
  H      2.352500   -3.639660    0.738590
  H     -8.771960    4.833450   -0.590480
  H     -2.675950    4.615260   -2.136840
  H     -1.257850    3.709330   -1.581190
  H     -3.494530    2.571040   -3.344870
  H     -1.903330    3.093120   -3.912320
  H     -2.045160    1.697840   -2.842000
  H     -3.653960   -3.167950    2.888750
  H     -5.080140   -2.276790    2.330060
  H     -4.253200   -0.217860    3.477800
  H     -4.371090   -1.562230    4.614540
  H     -2.793670   -1.073100    3.982280
  H     -6.284560    5.277410   -0.173860
  H     -4.682380    4.544090   -0.396960
  H     -6.947430    4.586240   -2.462810
  H     -5.479720    5.564700   -2.519450
  H     -5.378910    3.809910   -2.699800
  H     -1.725920   -3.203190    0.978550
  H     -0.149650   -3.974990    0.712760
  H     -0.962460   -2.437850    3.230460
  H     -0.838040   -4.195060    3.094460
  H      0.610390   -3.192120    2.962280
  H      4.638610   -3.652050    0.167620
  H      7.997150    1.137610   -2.189760
  H     11.317730   -1.563980   -2.330310
  H      9.933980   -3.387520   -1.413430
  H    -11.897050    2.762580    0.575540
  H    -11.597130    7.919050   -3.015050
  H    -15.863820    8.027080   -2.663630
  H    -15.831430    6.110570   -1.111260

 Total Charge           Charge          ....    0
 Multiplicity           Mult            ....    1
 Number of Electrons    NEL             ....  498
 Basis Dimension        Dim             .... 1118

ORBITAL ENERGIES
----------------

  NO   OCC          E(Eh)            E(eV)
   0   2.0000     -88.990580     -2421.5568
   1   2.0000     -88.988000     -2421.4866
   2   2.0000     -88.986607     -2421.4487
   3   2.0000     -88.985259     -2421.4120
   4   2.0000     -24.823749      -675.4886
   5   2.0000     -24.823367      -675.4782
   6   2.0000     -19.299376      -525.1627
   7   2.0000     -19.299006      -525.1527
   8   2.0000     -19.258181      -524.0417
   9   2.0000     -19.257019      -524.0101
  10   2.0000     -14.515357      -394.9829
  11   2.0000     -14.513529      -394.9332
  12   2.0000     -14.450666      -393.2226
  13   2.0000     -14.447397      -393.1337
  14   2.0000     -14.445641      -393.0859
  15   2.0000     -14.445452      -393.0807
  16   2.0000     -10.410901      -283.2950
  17   2.0000     -10.410528      -283.2849
  18   2.0000     -10.406940      -283.1872
  19   2.0000     -10.403536      -283.0946
  20   2.0000     -10.390190      -282.7314
  21   2.0000     -10.389412      -282.7103
  22   2.0000     -10.377111      -282.3755
  23   2.0000     -10.376227      -282.3515
  24   2.0000     -10.372311      -282.2449
  25   2.0000     -10.372290      -282.2444
  26   2.0000     -10.371624      -282.2262
  27   2.0000     -10.371505      -282.2230
  28   2.0000     -10.366778      -282.0944
  29   2.0000     -10.365338      -282.0552
  30   2.0000     -10.358971      -281.8819
  31   2.0000     -10.357487      -281.8415
  32   2.0000     -10.356279      -281.8087
  33   2.0000     -10.356071      -281.8030
  34   2.0000     -10.352368      -281.7023
  35   2.0000     -10.350589      -281.6538
  36   2.0000     -10.350571      -281.6534
  37   2.0000     -10.349712      -281.6300
  38   2.0000     -10.348991      -281.6104
  39   2.0000     -10.348712      -281.6028
  40   2.0000     -10.348696      -281.6023
  41   2.0000     -10.347728      -281.5760
  42   2.0000     -10.347573      -281.5718
  43   2.0000     -10.347321      -281.5649
  44   2.0000     -10.347201      -281.5616
  45   2.0000     -10.343850      -281.4705
  46   2.0000     -10.343701      -281.4664
  47   2.0000     -10.340366      -281.3757
  48   2.0000     -10.339868      -281.3621
  49   2.0000     -10.339658      -281.3564
  50   2.0000     -10.337797      -281.3058
  51   2.0000     -10.337511      -281.2980
  52   2.0000     -10.337354      -281.2937
  53   2.0000     -10.336252      -281.2637
  54   2.0000     -10.335885      -281.2537
  55   2.0000     -10.333259      -281.1823
  56   2.0000     -10.332829      -281.1706
  57   2.0000     -10.332710      -281.1673
  58   2.0000     -10.332166      -281.1525
  59   2.0000     -10.331057      -281.1223
  60   2.0000     -10.330555      -281.1087
  61   2.0000     -10.330095      -281.0962
  62   2.0000     -10.329724      -281.0861
  63   2.0000     -10.326541      -280.9995
  64   2.0000     -10.305318      -280.4220
  65   2.0000     -10.304804      -280.4080
  66   2.0000     -10.304408      -280.3972
  67   2.0000     -10.303223      -280.3649
  68   2.0000      -8.103876      -220.5177
  69   2.0000      -8.101015      -220.4398
  70   2.0000      -8.099616      -220.4018
  71   2.0000      -8.096661      -220.3214
  72   2.0000      -6.063717      -165.0021
  73   2.0000      -6.061319      -164.9369
  74   2.0000      -6.059903      -164.8983
  75   2.0000      -6.059662      -164.8918
  76   2.0000      -6.057184      -164.8244
  77   2.0000      -6.056762      -164.8129
  78   2.0000      -6.055752      -164.7854
  79   2.0000      -6.055432      -164.7767
  80   2.0000      -6.052129      -164.6868
  81   2.0000      -6.051784      -164.6774
  82   2.0000      -6.050432      -164.6406
  83   2.0000      -6.048184      -164.5795
  84   2.0000      -1.345804       -36.6212
  85   2.0000      -1.345514       -36.6133
  86   2.0000      -1.205117       -32.7929
  87   2.0000      -1.203726       -32.7550
  88   2.0000      -1.175042       -31.9745
  89   2.0000      -1.174503       -31.9599
  90   2.0000      -1.143522       -31.1168
  91   2.0000      -1.141439       -31.0601
  92   2.0000      -1.056058       -28.7368
  93   2.0000      -1.055504       -28.7217
  94   2.0000      -1.040558       -28.3150
  95   2.0000      -1.036930       -28.2163
  96   2.0000      -1.035975       -28.1903
  97   2.0000      -1.029057       -28.0021
  98   2.0000      -1.027929       -27.9714
  99   2.0000      -1.024100       -27.8672
 100   2.0000      -1.021763       -27.8036
 101   2.0000      -1.017307       -27.6823
 102   2.0000      -0.989866       -26.9356
 103   2.0000      -0.989290       -26.9199
 104   2.0000      -0.968577       -26.3563
 105   2.0000      -0.948020       -25.7969
 106   2.0000      -0.939823       -25.5739
 107   2.0000      -0.936947       -25.4956
 108   2.0000      -0.932090       -25.3635
 109   2.0000      -0.928566       -25.2676
 110   2.0000      -0.916454       -24.9380
 111   2.0000      -0.913977       -24.8706
 112   2.0000      -0.904200       -24.6045
 113   2.0000      -0.903945       -24.5976
 114   2.0000      -0.895142       -24.3581
 115   2.0000      -0.888948       -24.1895
 116   2.0000      -0.886303       -24.1175
 117   2.0000      -0.884884       -24.0789
 118   2.0000      -0.868338       -23.6287
 119   2.0000      -0.861565       -23.4444
 120   2.0000      -0.851151       -23.1610
 121   2.0000      -0.847227       -23.0542
 122   2.0000      -0.829202       -22.5637
 123   2.0000      -0.828104       -22.5339
 124   2.0000      -0.808306       -21.9951
 125   2.0000      -0.808016       -21.9872
 126   2.0000      -0.801846       -21.8193
 127   2.0000      -0.794482       -21.6190
 128   2.0000      -0.777531       -21.1577
 129   2.0000      -0.770316       -20.9614
 130   2.0000      -0.764241       -20.7961
 131   2.0000      -0.755932       -20.5699
 132   2.0000      -0.752338       -20.4721
 133   2.0000      -0.741591       -20.1797
 134   2.0000      -0.738282       -20.0897
 135   2.0000      -0.734985       -20.0000
 136   2.0000      -0.722527       -19.6610
 137   2.0000      -0.720114       -19.5953
 138   2.0000      -0.712432       -19.3863
 139   2.0000      -0.710272       -19.3275
 140   2.0000      -0.699238       -19.0272
 141   2.0000      -0.694826       -18.9072
 142   2.0000      -0.690690       -18.7946
 143   2.0000      -0.682701       -18.5772
 144   2.0000      -0.678692       -18.4681
 145   2.0000      -0.672938       -18.3116
 146   2.0000      -0.672207       -18.2917
 147   2.0000      -0.655319       -17.8321
 148   2.0000      -0.654779       -17.8174
 149   2.0000      -0.649381       -17.6706
 150   2.0000      -0.647649       -17.6234
 151   2.0000      -0.644064       -17.5259
 152   2.0000      -0.635634       -17.2965
 153   2.0000      -0.631634       -17.1876
 154   2.0000      -0.622971       -16.9519
 155   2.0000      -0.622090       -16.9279
 156   2.0000      -0.616655       -16.7800
 157   2.0000      -0.614125       -16.7112
 158   2.0000      -0.607920       -16.5424
 159   2.0000      -0.606732       -16.5100
 160   2.0000      -0.605026       -16.4636
 161   2.0000      -0.599109       -16.3026
 162   2.0000      -0.598680       -16.2909
 163   2.0000      -0.598540       -16.2871
 164   2.0000      -0.593836       -16.1591
 165   2.0000      -0.592873       -16.1329
 166   2.0000      -0.587674       -15.9914
 167   2.0000      -0.584836       -15.9142
 168   2.0000      -0.582809       -15.8590
 169   2.0000      -0.581318       -15.8185
 170   2.0000      -0.578845       -15.7512
 171   2.0000      -0.573301       -15.6003
 172   2.0000      -0.572342       -15.5742
 173   2.0000      -0.571137       -15.5414
 174   2.0000      -0.570267       -15.5177
 175   2.0000      -0.567445       -15.4410
 176   2.0000      -0.566385       -15.4121
 177   2.0000      -0.561545       -15.2804
 178   2.0000      -0.555649       -15.1200
 179   2.0000      -0.554097       -15.0777
 180   2.0000      -0.550956       -14.9923
 181   2.0000      -0.545436       -14.8421
 182   2.0000      -0.540573       -14.7097
 183   2.0000      -0.538034       -14.6406
 184   2.0000      -0.536118       -14.5885
 185   2.0000      -0.531876       -14.4731
 186   2.0000      -0.530922       -14.4471
 187   2.0000      -0.527745       -14.3607
 188   2.0000      -0.523670       -14.2498
 189   2.0000      -0.521018       -14.1776
 190   2.0000      -0.520422       -14.1614
 191   2.0000      -0.518507       -14.1093
 192   2.0000      -0.517342       -14.0776
 193   2.0000      -0.512020       -13.9328
 194   2.0000      -0.509363       -13.8605
 195   2.0000      -0.508592       -13.8395
 196   2.0000      -0.507991       -13.8231
 197   2.0000      -0.506252       -13.7758
 198   2.0000      -0.505765       -13.7626
 199   2.0000      -0.502651       -13.6778
 200   2.0000      -0.496804       -13.5187
 201   2.0000      -0.494244       -13.4491
 202   2.0000      -0.493009       -13.4155
 203   2.0000      -0.491355       -13.3705
 204   2.0000      -0.489558       -13.3216
 205   2.0000      -0.486660       -13.2427
 206   2.0000      -0.485104       -13.2003
 207   2.0000      -0.484392       -13.1810
 208   2.0000      -0.482396       -13.1267
 209   2.0000      -0.479712       -13.0536
 210   2.0000      -0.478670       -13.0253
 211   2.0000      -0.478225       -13.0132
 212   2.0000      -0.476323       -12.9614
 213   2.0000      -0.475382       -12.9358
 214   2.0000      -0.474484       -12.9114
 215   2.0000      -0.468512       -12.7489
 216   2.0000      -0.467251       -12.7145
 217   2.0000      -0.462690       -12.5904
 218   2.0000      -0.461805       -12.5663
 219   2.0000      -0.460140       -12.5210
 220   2.0000      -0.458588       -12.4788
 221   2.0000      -0.456686       -12.4270
 222   2.0000      -0.453814       -12.3489
 223   2.0000      -0.453130       -12.3303
 224   2.0000      -0.449772       -12.2389
 225   2.0000      -0.442747       -12.0478
 226   2.0000      -0.440519       -11.9871
 227   2.0000      -0.440169       -11.9776
 228   2.0000      -0.437589       -11.9074
 229   2.0000      -0.435806       -11.8589
 230   2.0000      -0.429578       -11.6894
 231   2.0000      -0.425881       -11.5888
 232   2.0000      -0.411538       -11.1985
 233   2.0000      -0.409473       -11.1423
 234   2.0000      -0.388385       -10.5685
 235   2.0000      -0.384285       -10.4569
 236   2.0000      -0.383452       -10.4343
 237   2.0000      -0.379519       -10.3272
 238   2.0000      -0.375370       -10.2143
 239   2.0000      -0.370758       -10.0888
 240   2.0000      -0.367635       -10.0038
 241   2.0000      -0.361000        -9.8233
 242   2.0000      -0.342409        -9.3174
 243   2.0000      -0.340432        -9.2636
 244   2.0000      -0.332989        -9.0611
 245   2.0000      -0.317880        -8.6500
 246   2.0000      -0.300241        -8.1700
 247   2.0000      -0.297942        -8.1074
 248   2.0000      -0.264780        -7.2050
 249   0.0000      -0.073858        -2.0098
 250   0.0000      -0.060818        -1.6549
 251   0.0000      -0.039353        -1.0708
 252   0.0000      -0.036344        -0.9890
 253   0.0000       0.002944         0.0801

MULLIKEN ATOMIC CHARGES
-----------------------
   0 C :    0.044011
   1 C :    0.126834
   2 C :   -0.151657
   3 C :    0.045006
   4 C :    0.121392
   5 C :   -0.150973
   6 S :    0.122069
   7 C :   -0.124419
   8 C :    0.101557
   9 C :   -0.076781
  10 C :    0.191362
  11 N :   -0.238713
  12 S :    0.203448
  13 C :   -0.084493
  14 C :   -0.103623
  15 S :    0.124721
  16 C :   -0.124220
  17 C :    0.103425
  18 C :   -0.082012
  19 C :    0.131063
  20 N :   -0.238154
  21 S :    0.160690
  22 C :   -0.155249
  23 C :   -0.018557
  24 O :   -0.375485
  25 O :   -0.374499
  26 C :    0.115466
  27 C :   -0.063764
  28 C :    0.114326
  29 C :   -0.063027
  30 C :    0.074095
  31 C :   -0.048420
  32 C :    0.073737
  33 C :   -0.044674
  34 C :    0.003478
  35 C :   -0.144332
  36 C :    0.229391
  37 C :   -0.061994
  38 C :    0.006943
  39 C :    0.298781
  40 C :   -0.092350
  41 C :    0.320300
  42 C :   -0.056296
  43 C :   -0.017966
  44 C :    0.067972
  45 C :   -0.139322
  46 C :    0.227361
  47 C :   -0.061977
  48 C :    0.010531
  49 C :    0.273415
  50 C :   -0.091645
  51 C :    0.319074
  52 C :   -0.058873
  53 C :   -0.013205
  54 O :   -0.194087
  55 F :   -0.201460
  56 C :   -0.376681
  57 C :   -0.129251
  58 C :   -0.139881
  59 N :    0.102400
  60 N :    0.108583
  61 O :   -0.194036
  62 F :   -0.200450
  63 C :   -0.389873
  64 C :   -0.127970
  65 C :   -0.123182
  66 N :    0.089590
  67 N :    0.101160
  68 H :    0.028284
  69 H :    0.035106
  70 H :    0.041517
  71 H :    0.060281
  72 H :    0.043122
  73 H :    0.053936
  74 H :    0.053703
  75 H :    0.041888
  76 H :    0.059334
  77 H :    0.053098
  78 H :    0.054586
  79 H :    0.044015
  80 H :    0.048169
  81 H :    0.067840
  82 H :    0.051402
  83 H :    0.044513
  84 H :    0.030153
  85 H :    0.069626
  86 H :    0.043046
  87 H :    0.032613
  88 H :    0.045612
  89 H :    0.042308
  90 H :    0.025467
  91 H :    0.033581
  92 H :    0.040421
  93 H :    0.035370
  94 H :    0.033611
  95 H :    0.031585
  96 H :    0.040635
  97 H :    0.036547
Sum of atomic charges:   -0.0000000

LOEWDIN ATOMIC CHARGES
----------------------
   0 C :   -0.068210
   1 C :    0.027954
   2 C :   -0.168789
   3 C :   -0.067187
   4 C :    0.026309
   5 C :   -0.168177
   6 S :    0.400095
   7 C :   -0.227064
   8 C :    0.011930
   9 C :   -0.203524
  10 C :   -0.026448
  11 N :    0.040336
  12 S :    0.471805
  13 C :   -0.184916
  14 C :   -0.025264
  15 S :    0.397986
  16 C :   -0.226731
  17 C :    0.012477
  18 C :   -0.197981
  19 C :   -0.025974
  20 N :    0.045278
  21 S :    0.422063
  22 C :   -0.181117
  23 C :   -0.012284
  24 O :   -0.110493
  25 O :   -0.108907
  26 C :    0.072527
  27 C :   -0.075501
  28 C :    0.072555
  29 C :   -0.074931
  30 C :    0.038691
  31 C :   -0.063241
  32 C :    0.037902
  33 C :   -0.063684
  34 C :    0.065944
  35 C :   -0.131417
  36 C :    0.091690
  37 C :   -0.036067
  38 C :   -0.031108
  39 C :    0.083566
  40 C :   -0.017180
  41 C :    0.106267
  42 C :   -0.033190
  43 C :    0.014954
  44 C :    0.059334
  45 C :   -0.120705
  46 C :    0.097748
  47 C :   -0.036862
  48 C :   -0.031237
  49 C :    0.081310
  50 C :   -0.018259
  51 C :    0.105965
  52 C :   -0.032774
  53 C :    0.015082
  54 O :   -0.153408
  55 F :   -0.064641
  56 C :   -0.152189
  57 C :   -0.013307
  58 C :   -0.020816
  59 N :   -0.059081
  60 N :   -0.054677
  61 O :   -0.161587
  62 F :   -0.063979
  63 C :   -0.155592
  64 C :   -0.013569
  65 C :   -0.014006
  66 N :   -0.063842
  67 N :   -0.060412
  68 H :    0.041821
  69 H :    0.036518
  70 H :    0.026890
  71 H :    0.005183
  72 H :    0.029191
  73 H :    0.040623
  74 H :    0.027887
  75 H :    0.026794
  76 H :    0.004656
  77 H :    0.029123
  78 H :    0.040749
  79 H :    0.029734
  80 H :    0.030437
  81 H :    0.029946
  82 H :    0.032109
  83 H :    0.032591
  84 H :    0.024692
  85 H :    0.030498
  86 H :    0.028381
  87 H :    0.025394
  88 H :    0.032522
  89 H :    0.028953
  90 H :    0.051325
  91 H :    0.051633
  92 H :    0.048245
  93 H :    0.044935
  94 H :    0.045890
  95 H :    0.050456
  96 H :    0.048296
  97 H :    0.045092

  Mayer bond orders larger than 0.100000
B(  0-C ,  1-C ) :   1.3426 B(  0-C ,  3-C ) :   0.1243 B(  0-C ,  5-C ) :   1.3390
B(  0-C , 17-C ) :   1.1267 B(  1-C ,  2-C ) :   1.3915 B(  1-C , 25-O ) :   1.1589
B(  2-C ,  3-C ) :   1.3372 B(  2-C ,  6-S ) :   1.0239 B(  3-C ,  4-C ) :   1.3431
B(  3-C ,  8-C ) :   1.1294 B(  4-C ,  5-C ) :   1.3888 B(  4-C , 24-O ) :   1.1600
B(  5-C , 15-S ) :   1.0238 B(  6-S ,  7-C ) :   0.9764 B(  7-C ,  8-C ) :   1.4420
B(  7-C ,  9-C ) :   1.4466 B(  8-C , 11-N ) :   1.1944 B(  9-C , 10-C ) :   1.3210
B(  9-C , 12-S ) :   1.0210 B( 10-C , 11-N ) :   1.1272 B( 10-C , 14-C ) :   1.2709
B( 11-N , 32-C ) :   0.9286 B( 12-S , 13-C ) :   1.0579 B( 12-S , 14-C ) :   0.1001
B( 13-C , 14-C ) :   1.3464 B( 13-C , 34-C ) :   1.3112 B( 14-C , 68-H ) :   1.0235
B( 15-S , 16-C ) :   0.9764 B( 16-C , 17-C ) :   1.4378 B( 16-C , 18-C ) :   1.4517
B( 17-C , 20-N ) :   1.2035 B( 18-C , 19-C ) :   1.3335 B( 18-C , 21-S ) :   1.0620
B( 19-C , 20-N ) :   1.1322 B( 19-C , 23-C ) :   1.2678 B( 20-N , 30-C ) :   0.9237
B( 21-S , 22-C ) :   1.0606 B( 22-C , 23-C ) :   1.4044 B( 22-C , 44-C ) :   1.2715
B( 23-C , 69-H ) :   0.9815 B( 24-O , 28-C ) :   0.9082 B( 25-O , 26-C ) :   0.9066
B( 26-C , 27-C ) :   1.0910 B( 26-C , 70-H ) :   0.9565 B( 26-C , 71-H ) :   0.9475
B( 27-C , 72-H ) :   0.9639 B( 27-C , 73-H ) :   0.9631 B( 27-C , 74-H ) :   0.9620
B( 28-C , 29-C ) :   1.0913 B( 28-C , 75-H ) :   0.9567 B( 28-C , 76-H ) :   0.9476
B( 29-C , 77-H ) :   0.9622 B( 29-C , 78-H ) :   0.9634 B( 29-C , 79-H ) :   0.9643
B( 30-C , 31-C ) :   1.0958 B( 30-C , 80-H ) :   0.9514 B( 30-C , 81-H ) :   0.9379
B( 31-C , 82-H ) :   0.9672 B( 31-C , 83-H ) :   0.9702 B( 31-C , 84-H ) :   0.9663
B( 32-C , 33-C ) :   1.0949 B( 32-C , 85-H ) :   0.9381 B( 32-C , 86-H ) :   0.9514
B( 33-C , 87-H ) :   0.9670 B( 33-C , 88-H ) :   0.9707 B( 33-C , 89-H ) :   0.9680
B( 34-C , 35-C ) :   1.5070 B( 34-C , 90-H ) :   0.9372 B( 35-C , 36-C ) :   0.9839
B( 35-C , 39-C ) :   1.1032 B( 36-C , 37-C ) :   0.9599 B( 36-C , 61-O ) :   2.1339
B( 37-C , 38-C ) :   1.3397 B( 37-C , 40-C ) :   1.3621 B( 38-C , 39-C ) :   1.0079
B( 38-C , 43-C ) :   1.3792 B( 39-C , 63-C ) :   1.6248 B( 40-C , 41-C ) :   1.3176
B( 40-C , 91-H ) :   1.0143 B( 41-C , 42-C ) :   1.3656 B( 41-C , 62-F ) :   1.0609
B( 42-C , 43-C ) :   1.3698 B( 42-C , 92-H ) :   0.9881 B( 43-C , 93-H ) :   0.9815
B( 44-C , 45-C ) :   1.5775 B( 44-C , 94-H ) :   0.9180 B( 45-C , 46-C ) :   0.9665
B( 45-C , 49-C ) :   1.0970 B( 46-C , 47-C ) :   0.9607 B( 46-C , 54-O ) :   2.1330
B( 47-C , 48-C ) :   1.3391 B( 47-C , 50-C ) :   1.3603 B( 48-C , 49-C ) :   1.0087
B( 48-C , 53-C ) :   1.3759 B( 49-C , 56-C ) :   1.6346 B( 50-C , 51-C ) :   1.3214
B( 50-C , 95-H ) :   1.0143 B( 51-C , 52-C ) :   1.3625 B( 51-C , 55-F ) :   1.0593
B( 52-C , 53-C ) :   1.3701 B( 52-C , 96-H ) :   0.9894 B( 53-C , 97-H ) :   0.9825
B( 56-C , 57-C ) :   1.1314 B( 56-C , 58-C ) :   1.1265 B( 57-C , 59-N ) :   2.9715
B( 58-C , 60-N ) :   2.9793 B( 63-C , 64-C ) :   1.1316 B( 63-C , 65-C ) :   1.1360
B( 64-C , 67-N ) :   2.9693 B( 65-C , 66-N ) :   2.9505

-----------------------------------------------------------------------------
         ABSORPTION SPECTRUM VIA TRANSITION ELECTRIC DIPOLE MOMENTS
-----------------------------------------------------------------------------
State   Energy  Wavelength   fosc         T2         TX        TY        TZ
        (cm-1)    (nm)                  (au**2)     (au)      (au)      (au)
-----------------------------------------------------------------------------
   0   19857.2    503.6   3.654001009  60.57947  -7.41840   2.31709   0.42180
   1   25275.9    395.6   0.011914614   0.15518  -0.06608  -0.07056  -0.38189
   2   27288.0    366.5   0.410947232   4.95782   1.28175  -1.79653   0.29568
   3   28657.3    349.0   0.005998271   0.06891   0.21099  -0.15608   0.00566
   4   29260.1    341.8   0.024207202   0.27236  -0.49435  -0.08598   0.14348
   5   29769.2    335.9   0.023534832   0.26027  -0.25856   0.37769  -0.22531
   6   32737.7    305.5   0.015465910   0.15553  -0.20683   0.33323  -0.04132
   7   32887.0    304.1   0.025106524   0.25133   0.17548   0.39321  -0.25674
   8   35308.4    283.2   0.058857050   0.54878   0.48830  -0.05324   0.55454
   9   36300.5    275.5   0.996984783   9.04172  -0.67836  -2.47041   1.57437
  10   37940.4    263.6   0.156315612   1.35636  -1.08922   0.40220  -0.09054
  11   38425.2    260.2   0.027210196   0.23313  -0.07407   0.34434   0.33025
  12   38754.5    258.0   0.302123529   2.56648   0.09407  -1.52486   0.48210
  13   38954.1    256.7   0.519248335   4.38831  -0.60396  -1.57646   1.24029
  14   38971.3    256.6   0.155807116   1.31619  -0.54922  -0.70588   0.71853
  15   39798.0    251.3   0.325114877   2.68938  -1.23565  -0.89325   0.60387

Dispersion correction           -0.061581207
FINAL SINGLE POINT ENERGY     -4417.990449728660

DIPOLE MOMENT
-------------
                                X             Y             Z
Electronic contribution:      3.58919       9.60607     -10.40183
Nuclear contribution   :     -2.81073      -8.07191       9.51595
                        -----------------------------------------
Total Dipole Moment    :      0.77847       1.53415      -0.88588
                        -----------------------------------------
Magnitude (a.u.)       :      1.93505
Magnitude (Debye)      :      4.91850

Rotational constants in cm-1:     0.002879     0.000253     0.000235
Rotational constants in MHz :    86.307283     7.582672     7.033936

                             ****ORCA TERMINATED NORMALLY****
TOTAL RUN TIME: 0 days 0 hours 9 minutes 6 seconds 909 msec
