                         Program Version 4.2.0 -  RELEASE  -
|  1> # ORCA input file
|  2> # SCF done       -107.467171967107          0.000953309913
|  3> ! wb97x-d3 def2-SVP def2/J RIJCOSX Grid4 TightSCF
|  4> %maxcore 5000
|  5> %tddft
|  6>     Mode sTDDFT
|  7>     Ethresh 5.0
|  8>     maxcore 5000
|  9> end
| 10>
| 11> %pal
| 12>   nprocs 6
| 13>   end
| 14> * xyz 0 1
| 15>    C       -1.36869        -0.74101         0.02776
| 16>    C       -1.36943         0.61866        -0.25463
| 17>    C       -0.22557         1.40549        -0.19568
| 18>    C        0.97391         0.73506         0.16837
| 19>    C        0.97614        -0.67804         0.45444
| 20>    C       -0.22286        -1.43926         0.38880
| 21>    N        2.19032         1.26360         0.28810
| 22>    S        3.22755         0.11379         0.71356
| 23>    N        2.19423        -1.11429         0.76964
| 24>    C       -0.25573         2.80713        -0.48519
| 25>    C       -0.25112        -2.84013         0.68232
| 26>    S       -1.74822        -3.72558         0.65441
| 27>    C       -0.93852        -5.20093         1.09585
| 28>    C        0.42370        -4.98327         1.24502
| 29>    C        0.80538        -3.66881         1.01665
| 30>    C        0.77993         3.72218        -0.41689
| 31>    C        0.40056         5.01073        -0.76572
| 32>    C       -0.93755         5.12095        -1.11605
| 33>    S       -1.72928         3.57636        -0.99707
| 34>    C       -1.59723         6.29739        -1.52484
| 35>    C       -2.89501         6.43673        -1.89658
| 36>    S       -4.11366         5.19091        -1.96846
| 37>    C       -5.32324         6.34203        -2.54186
| 38>    N       -4.78629         7.58153        -2.64848
| 39>    C       -3.44987         7.72533        -2.31382
| 40>    O       -2.85466         8.77802        -2.36355
| 41>    C       -5.54996         8.71522        -3.13318
| 42>    C       -5.57259         8.75180        -4.65558
| 43>    S       -6.86622         5.93818        -2.87611
| 44>    C       -1.60766        -6.42792         1.27683
| 45>    C       -2.93562        -6.67999         1.15694
| 46>    C       -3.49558        -8.01159         1.39297
| 47>    N       -4.86978        -7.98700         1.22071
| 48>    C       -5.43081        -6.80344         0.87316
| 49>    S       -4.19478        -5.54952         0.73479
| 50>    S       -7.01912        -6.53693         0.62405
| 51>    C       -5.65361        -9.19701         1.37952
| 52>    C       -5.90842        -9.86997         0.03683
| 53>    O       -2.87560        -9.00310         1.70378
| 54>    H       -2.30144        -1.28216        -0.03563
| 55>    H       -2.30262         1.08849        -0.52896
| 56>    H        1.10453        -5.77059         1.51554
| 57>    H        1.81340        -3.30424         1.08597
| 58>    H        1.77168         3.43666        -0.11929
| 59>    H        1.06682         5.85471        -0.77105
| 60>    H       -1.00228         7.20303        -1.55397
| 61>    H       -6.56479         8.63441        -2.73756
| 62>    H       -5.06145         9.60817        -2.73701
| 63>    H       -6.04633         7.85543        -5.04827
| 64>    H       -6.13531         9.61822        -4.98945
| 65>    H       -4.55996         8.81948        -5.04601
| 66>    H       -0.99439        -7.27845         1.55123
| 67>    H       -5.07461        -9.85462         2.03233
| 68>    H       -6.59861        -8.92845         1.85782
| 69>    H       -4.96583       -10.12446        -0.44227
| 70>    H       -6.47987       -10.78042         0.19069
| 71>    H       -6.47371        -9.20939        -0.61616
| 72> *
| 73>
| 74>                          ****END OF INPUT****

CARTESIAN COORDINATES (ANGSTROEM)
---------------------------------
  C     -1.368690   -0.741010    0.027760
  C     -1.369430    0.618660   -0.254630
  C     -0.225570    1.405490   -0.195680
  C      0.973910    0.735060    0.168370
  C      0.976140   -0.678040    0.454440
  C     -0.222860   -1.439260    0.388800
  N      2.190320    1.263600    0.288100
  S      3.227550    0.113790    0.713560
  N      2.194230   -1.114290    0.769640
  C     -0.255730    2.807130   -0.485190
  C     -0.251120   -2.840130    0.682320
  S     -1.748220   -3.725580    0.654410
  C     -0.938520   -5.200930    1.095850
  C      0.423700   -4.983270    1.245020
  C      0.805380   -3.668810    1.016650
  C      0.779930    3.722180   -0.416890
  C      0.400560    5.010730   -0.765720
  C     -0.937550    5.120950   -1.116050
  S     -1.729280    3.576360   -0.997070
  C     -1.597230    6.297390   -1.524840
  C     -2.895010    6.436730   -1.896580
  S     -4.113660    5.190910   -1.968460
  C     -5.323240    6.342030   -2.541860
  N     -4.786290    7.581530   -2.648480
  C     -3.449870    7.725330   -2.313820
  O     -2.854660    8.778020   -2.363550
  C     -5.549960    8.715220   -3.133180
  C     -5.572590    8.751800   -4.655580
  S     -6.866220    5.938180   -2.876110
  C     -1.607660   -6.427920    1.276830
  C     -2.935620   -6.679990    1.156940
  C     -3.495580   -8.011590    1.392970
  N     -4.869780   -7.987000    1.220710
  C     -5.430810   -6.803440    0.873160
  S     -4.194780   -5.549520    0.734790
  S     -7.019120   -6.536930    0.624050
  C     -5.653610   -9.197010    1.379520
  C     -5.908420   -9.869970    0.036830
  O     -2.875600   -9.003100    1.703780
  H     -2.301440   -1.282160   -0.035630
  H     -2.302620    1.088490   -0.528960
  H      1.104530   -5.770590    1.515540
  H      1.813400   -3.304240    1.085970
  H      1.771680    3.436660   -0.119290
  H      1.066820    5.854710   -0.771050
  H     -1.002280    7.203030   -1.553970
  H     -6.564790    8.634410   -2.737560
  H     -5.061450    9.608170   -2.737010
  H     -6.046330    7.855430   -5.048270
  H     -6.135310    9.618220   -4.989450
  H     -4.559960    8.819480   -5.046010
  H     -0.994390   -7.278450    1.551230
  H     -5.074610   -9.854620    2.032330
  H     -6.598610   -8.928450    1.857820
  H     -4.965830  -10.124460   -0.442270
  H     -6.479870  -10.780420    0.190690
  H     -6.473710   -9.209390   -0.616160

 Total Charge           Charge          ....    0
 Multiplicity           Mult            ....    1
 Number of Electrons    NEL             ....  330
 Basis Dimension        Dim             ....  664

ORBITAL ENERGIES
----------------

  NO   OCC          E(Eh)            E(eV)
   0   2.0000     -89.058492     -2423.4048
   1   2.0000     -88.993099     -2421.6253
   2   2.0000     -88.992965     -2421.6217
   3   2.0000     -88.987181     -2421.4643
   4   2.0000     -88.987074     -2421.4614
   5   2.0000     -88.910054     -2419.3656
   6   2.0000     -88.909900     -2419.3614
   7   2.0000     -19.244062      -523.6575
   8   2.0000     -19.243986      -523.6555
   9   2.0000     -14.510859      -394.8606
  10   2.0000     -14.510737      -394.8572
  11   2.0000     -14.487775      -394.2324
  12   2.0000     -14.487705      -394.2305
  13   2.0000     -10.427915      -283.7580
  14   2.0000     -10.427798      -283.7548
  15   2.0000     -10.420018      -283.5431
  16   2.0000     -10.419986      -283.5422
  17   2.0000     -10.369893      -282.1791
  18   2.0000     -10.369611      -282.1715
  19   2.0000     -10.352694      -281.7111
  20   2.0000     -10.352593      -281.7084
  21   2.0000     -10.350417      -281.6492
  22   2.0000     -10.350152      -281.6419
  23   2.0000     -10.350102      -281.6406
  24   2.0000     -10.350033      -281.6387
  25   2.0000     -10.346625      -281.5460
  26   2.0000     -10.346523      -281.5432
  27   2.0000     -10.344345      -281.4840
  28   2.0000     -10.344120      -281.4778
  29   2.0000     -10.338110      -281.3143
  30   2.0000     -10.337993      -281.3111
  31   2.0000     -10.333019      -281.1757
  32   2.0000     -10.332607      -281.1645
  33   2.0000     -10.321247      -280.8554
  34   2.0000     -10.321166      -280.8532
  35   2.0000     -10.312631      -280.6209
  36   2.0000     -10.312497      -280.6173
  37   2.0000     -10.288382      -279.9611
  38   2.0000     -10.288346      -279.9601
  39   2.0000      -8.169095      -222.2924
  40   2.0000      -8.106796      -220.5971
  41   2.0000      -8.106749      -220.5958
  42   2.0000      -8.102180      -220.4715
  43   2.0000      -8.102085      -220.4689
  44   2.0000      -8.025898      -218.3958
  45   2.0000      -8.025775      -218.3924
  46   2.0000      -6.130630      -166.8229
  47   2.0000      -6.122556      -166.6032
  48   2.0000      -6.121638      -166.5782
  49   2.0000      -6.066220      -165.0702
  50   2.0000      -6.066123      -165.0676
  51   2.0000      -6.062285      -164.9632
  52   2.0000      -6.062192      -164.9606
  53   2.0000      -6.062121      -164.9587
  54   2.0000      -6.062086      -164.9577
  55   2.0000      -6.059236      -164.8802
  56   2.0000      -6.059198      -164.8791
  57   2.0000      -6.058097      -164.8492
  58   2.0000      -6.058009      -164.8468
  59   2.0000      -6.052797      -164.7050
  60   2.0000      -6.052688      -164.7020
  61   2.0000      -5.985917      -162.8851
  62   2.0000      -5.985809      -162.8821
  63   2.0000      -5.982544      -162.7933
  64   2.0000      -5.982419      -162.7899
  65   2.0000      -5.976149      -162.6193
  66   2.0000      -5.975991      -162.6150
  67   2.0000      -1.190640       -32.3990
  68   2.0000      -1.190591       -32.3976
  69   2.0000      -1.174331       -31.9552
  70   2.0000      -1.117345       -30.4045
  71   2.0000      -1.117269       -30.4024
  72   2.0000      -1.041126       -28.3305
  73   2.0000      -1.040924       -28.3250
  74   2.0000      -1.025058       -27.8933
  75   2.0000      -1.008870       -27.4528
  76   2.0000      -0.986767       -26.8513
  77   2.0000      -0.984013       -26.7763
  78   2.0000      -0.942349       -25.6426
  79   2.0000      -0.929789       -25.3009
  80   2.0000      -0.918817       -25.0023
  81   2.0000      -0.911196       -24.7949
  82   2.0000      -0.901578       -24.5332
  83   2.0000      -0.894898       -24.3514
  84   2.0000      -0.881006       -23.9734
  85   2.0000      -0.874427       -23.7944
  86   2.0000      -0.872022       -23.7289
  87   2.0000      -0.868787       -23.6409
  88   2.0000      -0.846365       -23.0308
  89   2.0000      -0.823226       -22.4011
  90   2.0000      -0.796298       -21.6684
  91   2.0000      -0.781269       -21.2594
  92   2.0000      -0.779574       -21.2133
  93   2.0000      -0.764283       -20.7972
  94   2.0000      -0.761230       -20.7141
  95   2.0000      -0.756297       -20.5799
  96   2.0000      -0.750602       -20.4249
  97   2.0000      -0.730988       -19.8912
  98   2.0000      -0.718744       -19.5580
  99   2.0000      -0.694449       -18.8969
 100   2.0000      -0.684875       -18.6364
 101   2.0000      -0.674086       -18.3428
 102   2.0000      -0.665450       -18.1078
 103   2.0000      -0.656058       -17.8522
 104   2.0000      -0.651898       -17.7390
 105   2.0000      -0.641146       -17.4465
 106   2.0000      -0.632538       -17.2122
 107   2.0000      -0.630993       -17.1702
 108   2.0000      -0.620803       -16.8929
 109   2.0000      -0.609691       -16.5905
 110   2.0000      -0.606757       -16.5107
 111   2.0000      -0.597288       -16.2530
 112   2.0000      -0.593096       -16.1390
 113   2.0000      -0.592329       -16.1181
 114   2.0000      -0.588816       -16.0225
 115   2.0000      -0.579866       -15.7790
 116   2.0000      -0.566411       -15.4128
 117   2.0000      -0.562929       -15.3181
 118   2.0000      -0.560812       -15.2605
 119   2.0000      -0.543022       -14.7764
 120   2.0000      -0.539824       -14.6894
 121   2.0000      -0.539066       -14.6687
 122   2.0000      -0.536457       -14.5977
 123   2.0000      -0.534251       -14.5377
 124   2.0000      -0.533525       -14.5179
 125   2.0000      -0.530729       -14.4419
 126   2.0000      -0.521528       -14.1915
 127   2.0000      -0.511503       -13.9187
 128   2.0000      -0.511120       -13.9083
 129   2.0000      -0.509897       -13.8750
 130   2.0000      -0.509679       -13.8691
 131   2.0000      -0.500777       -13.6268
 132   2.0000      -0.500205       -13.6113
 133   2.0000      -0.493524       -13.4295
 134   2.0000      -0.491522       -13.3750
 135   2.0000      -0.491241       -13.3673
 136   2.0000      -0.485514       -13.2115
 137   2.0000      -0.483300       -13.1513
 138   2.0000      -0.481656       -13.1065
 139   2.0000      -0.479492       -13.0476
 140   2.0000      -0.473720       -12.8906
 141   2.0000      -0.473455       -12.8834
 142   2.0000      -0.470364       -12.7993
 143   2.0000      -0.458369       -12.4729
 144   2.0000      -0.454860       -12.3774
 145   2.0000      -0.452472       -12.3124
 146   2.0000      -0.444507       -12.0957
 147   2.0000      -0.438251       -11.9254
 148   2.0000      -0.437236       -11.8978
 149   2.0000      -0.431334       -11.7372
 150   2.0000      -0.409485       -11.1426
 151   2.0000      -0.397973       -10.8294
 152   2.0000      -0.390458       -10.6249
 153   2.0000      -0.390255       -10.6194
 154   2.0000      -0.382269       -10.4021
 155   2.0000      -0.377091       -10.2612
 156   2.0000      -0.366421        -9.9708
 157   2.0000      -0.364921        -9.9300
 158   2.0000      -0.358794        -9.7633
 159   2.0000      -0.348401        -9.4805
 160   2.0000      -0.334064        -9.0904
 161   2.0000      -0.322678        -8.7805
 162   2.0000      -0.322591        -8.7781
 163   2.0000      -0.305032        -8.3003
 164   2.0000      -0.275238        -7.4896
 165   0.0000      -0.073992        -2.0134
 166   0.0000      -0.036848        -1.0027
 167   0.0000      -0.026065        -0.7093
 168   0.0000       0.023119         0.6291
 169   0.0000       0.031780         0.8648

MULLIKEN ATOMIC CHARGES
-----------------------
   0 C :   -0.056169
   1 C :   -0.056615
   2 C :    0.107495
   3 C :    0.029206
   4 C :    0.031315
   5 C :    0.109386
   6 N :   -0.325911
   7 S :    0.536120
   8 N :   -0.324010
   9 C :   -0.101618
  10 C :   -0.102051
  11 S :    0.096016
  12 C :   -0.080076
  13 C :    0.017832
  14 C :    0.013522
  15 C :    0.011951
  16 C :    0.017177
  17 C :   -0.077361
  18 S :    0.094286
  19 C :    0.037268
  20 C :   -0.212925
  21 S :    0.120410
  22 C :    0.028969
  23 N :   -0.278085
  24 C :    0.288139
  25 O :   -0.211015
  26 C :    0.081936
  27 C :   -0.047169
  28 S :   -0.168008
  29 C :    0.038740
  30 C :   -0.210666
  31 C :    0.287064
  32 N :   -0.278184
  33 C :    0.029683
  34 S :    0.120209
  35 S :   -0.168380
  36 C :    0.076997
  37 C :   -0.048090
  38 O :   -0.210170
  39 H :    0.029708
  40 H :    0.029916
  41 H :    0.021772
  42 H :    0.031769
  43 H :    0.031602
  44 H :    0.022271
  45 H :    0.051911
  46 H :    0.057233
  47 H :    0.062257
  48 H :    0.045656
  49 H :    0.045782
  50 H :    0.043077
  51 H :    0.051173
  52 H :    0.063965
  53 H :    0.057957
  54 H :    0.043111
  55 H :    0.046843
  56 H :    0.046777
Sum of atomic charges:    0.0000000

LOEWDIN ATOMIC CHARGES
----------------------
   0 C :   -0.012491
   1 C :   -0.012641
   2 C :   -0.042854
   3 C :   -0.035080
   4 C :   -0.035144
   5 C :   -0.042744
   6 N :   -0.279651
   7 S :    0.644865
   8 N :   -0.279150
   9 C :   -0.156575
  10 C :   -0.156363
  11 S :    0.434792
  12 C :   -0.182779
  13 C :   -0.033762
  14 C :   -0.044907
  15 C :   -0.044853
  16 C :   -0.033971
  17 C :   -0.182712
  18 S :    0.435374
  19 C :   -0.002133
  20 C :   -0.227975
  21 S :    0.366736
  22 C :   -0.234773
  23 N :   -0.026529
  24 C :    0.076700
  25 O :   -0.178354
  26 C :    0.040162
  27 C :   -0.061597
  28 S :   -0.037490
  29 C :   -0.001993
  30 C :   -0.228184
  31 C :    0.076499
  32 N :   -0.026684
  33 C :   -0.234418
  34 S :    0.366601
  35 S :   -0.037591
  36 C :    0.039710
  37 C :   -0.062181
  38 O :   -0.178059
  39 H :    0.032234
  40 H :    0.032176
  41 H :    0.038289
  42 H :    0.035237
  43 H :    0.035167
  44 H :    0.038257
  45 H :    0.056899
  46 H :    0.027461
  47 H :    0.035347
  48 H :    0.026268
  49 H :    0.034468
  50 H :    0.029597
  51 H :    0.056794
  52 H :    0.035637
  53 H :    0.027763
  54 H :    0.029654
  55 H :    0.034676
  56 H :    0.026274

  Mayer bond orders larger than 0.100000
B(  0-C ,  1-C ) :   1.2814 B(  0-C ,  5-C ) :   1.4603 B(  0-C , 39-H ) :   0.9851
B(  1-C ,  2-C ) :   1.4621 B(  1-C , 40-H ) :   0.9843 B(  2-C ,  3-C ) :   1.1925
B(  2-C ,  5-C ) :   0.1039 B(  2-C ,  9-C ) :   1.1276 B(  3-C ,  4-C ) :   1.1579
B(  3-C ,  6-N ) :   1.5152 B(  4-C ,  5-C ) :   1.1922 B(  4-C ,  8-N ) :   1.5155
B(  5-C , 10-C ) :   1.1276 B(  6-N ,  7-S ) :   1.2699 B(  6-N ,  8-N ) :   0.1467
B(  7-S ,  8-N ) :   1.2713 B(  9-C , 15-C ) :   1.4985 B(  9-C , 18-S ) :   1.1370
B( 10-C , 11-S ) :   1.1361 B( 10-C , 14-C ) :   1.4979 B( 11-S , 12-C ) :   1.1015
B( 12-C , 13-C ) :   1.4507 B( 12-C , 29-C ) :   1.1559 B( 13-C , 14-C ) :   1.2800
B( 13-C , 41-H ) :   1.0015 B( 14-C , 42-H ) :   0.9818 B( 15-C , 16-C ) :   1.2807
B( 15-C , 43-H ) :   0.9816 B( 16-C , 17-C ) :   1.4468 B( 16-C , 44-H ) :   1.0032
B( 17-C , 18-S ) :   1.1021 B( 17-C , 19-C ) :   1.1582 B( 19-C , 20-C ) :   1.7224
B( 19-C , 45-H ) :   0.9628 B( 20-C , 21-S ) :   1.0189 B( 20-C , 24-C ) :   0.9638
B( 21-S , 22-C ) :   1.0381 B( 22-C , 23-N ) :   1.1486 B( 22-C , 28-S ) :   1.6963
B( 23-N , 24-C ) :   1.0468 B( 23-N , 26-C ) :   0.8972 B( 24-C , 25-O ) :   2.1316
B( 26-C , 27-C ) :   1.1018 B( 26-C , 46-H ) :   0.9430 B( 26-C , 47-H ) :   0.9428
B( 27-C , 48-H ) :   0.9684 B( 27-C , 49-H ) :   0.9748 B( 27-C , 50-H ) :   0.9704
B( 29-C , 30-C ) :   1.7269 B( 29-C , 51-H ) :   0.9615 B( 30-C , 31-C ) :   0.9632
B( 30-C , 34-S ) :   1.0169 B( 31-C , 32-N ) :   1.0476 B( 31-C , 38-O ) :   2.1336
B( 32-N , 33-C ) :   1.1473 B( 32-N , 36-C ) :   0.8975 B( 33-C , 34-S ) :   1.0385
B( 33-C , 35-S ) :   1.6956 B( 36-C , 37-C ) :   1.1032 B( 36-C , 52-H ) :   0.9426
B( 36-C , 53-H ) :   0.9432 B( 37-C , 54-H ) :   0.9702 B( 37-C , 55-H ) :   0.9741
B( 37-C , 56-H ) :   0.9680

-----------------------------------------------------------------------------
         ABSORPTION SPECTRUM VIA TRANSITION ELECTRIC DIPOLE MOMENTS
-----------------------------------------------------------------------------
State   Energy  Wavelength   fosc         T2         TX        TY        TZ
        (cm-1)    (nm)                  (au**2)     (au)      (au)      (au)
-----------------------------------------------------------------------------
   0   19041.9    525.2   1.339163795  23.15252  -0.02576  -4.67268   1.14801
   1   28315.4    353.2   1.306476391  15.18991   3.83221   0.15189   0.69354
   2   30521.2    327.6   0.000176565   0.00190  -0.03779   0.02117   0.00534
   3   30539.9    327.4   0.001322027   0.01425   0.01352   0.09562  -0.07019
   4   30718.6    325.5   0.184713536   1.97958  -0.02922  -1.33581   0.44083
   5   32994.4    303.1   0.094694318   0.94484   0.95563   0.04356   0.17239
   6   37999.6    263.2   0.096494965   0.83599  -0.01833   0.91247  -0.05528
   7   39073.0    255.9   0.004499441   0.03791   0.18788   0.01215   0.04962

Dispersion correction           -0.029283554
FINAL SINGLE POINT ENERGY     -4156.162889124026

DIPOLE MOMENT
-------------
                                X             Y             Z
Electronic contribution:     16.41373       2.16013       9.59667
Nuclear contribution   :    -14.21806      -2.09369      -9.32649
                        -----------------------------------------
Total Dipole Moment    :      2.19567       0.06643       0.27018
                        -----------------------------------------
Magnitude (a.u.)       :      2.21323
Magnitude (Debye)      :      5.62558

Rotational constants in cm-1:     0.003003     0.000758     0.000609
Rotational constants in MHz :    90.034318    22.733266    18.243577

                             ****ORCA TERMINATED NORMALLY****
TOTAL RUN TIME: 0 days 0 hours 2 minutes 51 seconds 851 msec
