                         Program Version 4.2.0 -  RELEASE  -
|  1> # ORCA input file
|  2> # SCF done       -207.275646658379          0.000865627497
|  3> ! wb97x-d3 def2-SVP def2/J RIJCOSX Grid4 TightSCF
|  4> %maxcore 5000
|  5> %tddft
|  6>     Mode sTDDFT
|  7>     Ethresh 5.0
|  8>     maxcore 5000
|  9> end
| 10>
| 11> %pal
| 12>   nprocs 6
| 13>   end
| 14> * xyz 0 1
| 15>    C        1.84144         2.72542        -1.80545
| 16>    C        1.81780         2.80052        -0.42431
| 17>    C        2.68419         3.76511        -2.39108
| 18>    C        2.88803         4.66473        -1.17282
| 19>    C        2.69136         3.92930         0.12921
| 20>    C        1.95847         4.79157         1.13540
| 21>    C        3.97144         3.34373         0.68925
| 22>    C        3.90003         3.52740        -3.35291
| 23>    C        3.38829         4.66428        -4.17247
| 24>    C        2.34798         5.11512        -3.13520
| 25>    C        2.60080         5.80198        -1.81849
| 26>    C        3.33930         5.26763        -5.53880
| 27>    C        2.17816         4.36701        -5.09027
| 28>    C        1.30025         5.31223        -4.22892
| 29>    C        2.77378         6.64505        -5.52366
| 30>    C        4.25838         4.83769        -6.61679
| 31>    C        1.81388         3.01797        -5.40475
| 32>    C        2.54196         1.88377        -5.08372
| 33>    S        4.08604         1.94021        -4.25061
| 34>    C       -2.78936        -2.76323         0.84841
| 35>    C       -3.31768        -3.72903         0.03245
| 36>    C       -4.27456        -4.74466         0.43512
| 37>    C       -4.42518        -5.67219        -0.68513
| 38>    C       -3.60755        -5.23908        -1.74364
| 39>    C       -2.93640        -3.98743        -1.36240
| 40>    C       -5.18312        -6.82274        -0.83408
| 41>    C       -5.10156        -7.51961        -2.03289
| 42>    C       -4.27642        -7.09507        -3.06395
| 43>    C       -3.51411        -5.94430        -2.92642
| 44>    O       -2.20698        -3.31670        -2.07512
| 45>    C       -4.94094        -4.83086         1.62848
| 46>    C       -5.86386        -5.84958         1.94969
| 47>    C       -4.82213        -3.93151         2.70956
| 48>    N       -4.78913        -3.25161         3.63500
| 49>    N       -6.61758        -6.64776         2.28551
| 50>    C        3.81968         4.89305        -7.93569
| 51>    C        4.65405         4.49253        -8.96206
| 52>    C        5.93092         4.03472        -8.68045
| 53>    C        6.37223         3.98221        -7.36956
| 54>    C        5.54059         4.38291        -6.33924
| 55>    C        3.26967         7.78827        -6.11402
| 56>    C        2.54962         8.96750        -5.97383
| 57>    C        1.36738         8.99551        -5.25354
| 58>    C        0.87276         7.84562        -4.65081
| 59>    C        1.57559         6.66969        -4.79990
| 60>    C        2.62630         5.37868         2.20110
| 61>    C        1.94091         6.17510         3.10159
| 62>    C        0.58396         6.39674         2.94522
| 63>    C       -0.08453         5.82596         1.87560
| 64>    C        0.59950         5.03233         0.97365
| 65>    C        5.20583         3.71961         0.17927
| 66>    C        6.37081         3.17332         0.68913
| 67>    C        6.31178         2.24708         1.71530
| 68>    C        5.08288         1.87688         2.23634
| 69>    C        3.91876         2.42258         1.72795
| 70>    C        0.98271         1.81326         0.11816
| 71>    C        0.42170         0.99954        -0.87490
| 72>    S        0.88888         1.45024        -2.47060
| 73>    S        0.43086         1.37205         1.71315
| 74>    C       -0.53013         0.08028         1.02908
| 75>    C       -0.41546         0.00479        -0.36886
| 76>    C       -1.37267        -0.88576         1.54841
| 77>    C       -1.88321        -1.73059         0.55990
| 78>    S       -1.29440        -1.30401        -1.04241
| 79>    C       -0.56474         0.01520        -5.69085
| 80>    C       -0.59806        -1.34779        -5.62400
| 81>    C       -1.79671        -2.11642        -5.34564
| 82>    C       -1.57916        -3.46759        -5.84601
| 83>    C       -0.22749        -3.59379        -6.21073
| 84>    C        0.46831        -2.30123        -6.01664
| 85>    O        1.64597        -2.08379        -6.19942
| 86>    C       -2.85227        -1.69799        -4.58255
| 87>    C       -3.94679        -2.51779        -4.24110
| 88>    N       -4.86106        -3.14590        -3.94451
| 89>    C       -2.91691        -0.43005        -3.96736
| 90>    N       -3.00702         0.57844        -3.42550
| 91>    C       -2.44411        -4.53689        -6.00873
| 92>    C       -1.93246        -5.72833        -6.50791
| 93>    C       -0.59115        -5.85678        -6.83915
| 94>    C        0.27729        -4.78254        -6.70048
| 95>    S        0.22206         2.59898        -5.93496
| 96>    C        0.54381         0.88792        -5.71351
| 97>    C        1.84629         0.68924        -5.30325
| 98>    H        4.86552         3.66325        -2.86512
| 99>    H        2.54448         6.83574        -1.53602
|100>    H       -3.08977        -2.78399         1.88948
|101>    H       -5.82524        -7.18311        -0.04725
|102>    H       -5.69215        -8.41469        -2.15861
|103>    H       -4.22995        -7.66474        -3.97988
|104>    H       -2.85955        -5.59897        -3.71125
|105>    H        2.82084         5.24755        -8.14695
|106>    H        4.30681         4.53486        -9.98375
|107>    H        6.58082         3.71913        -9.48290
|108>    H        7.36695         3.62632        -7.14663
|109>    H        5.88658         4.34460        -5.31712
|110>    H        4.19307         7.76269        -6.67329
|111>    H        2.91710         9.87243        -6.43386
|112>    H        0.82077         9.92190        -5.15995
|113>    H       -0.04818         7.86977        -4.08776
|114>    H        0.26337         5.05665        -4.02852
|115>    H        3.68550         5.21174         2.33002
|116>    H        2.47106         6.62267         3.92932
|117>    H        0.04975         7.01409         3.65190
|118>    H       -1.14210         5.99899         1.74240
|119>    H        0.07395         4.59605         0.13616
|120>    H        5.25223         4.45736        -0.60981
|121>    H        7.32605         3.47453         0.28437
|122>    H        7.22031         1.81932         2.11213
|123>    H        5.03024         1.16178         3.04367
|124>    H        2.96394         2.14344         2.14729
|125>    H       -1.62098        -0.99390         2.58872
|126>    H       -1.52174         0.52604        -5.68017
|127>    H       -3.49393        -4.44778        -5.77657
|128>    H       -2.59572        -6.56997        -6.64373
|129>    H       -0.22352        -6.79864        -7.21793
|130>    H        1.31978        -4.85967        -6.96834
|131>    H        2.25876        -0.28070        -5.09826
|132> *
|133>
|134>                          ****END OF INPUT****

CARTESIAN COORDINATES (ANGSTROEM)
---------------------------------
  C      1.841440    2.725420   -1.805450
  C      1.817800    2.800520   -0.424310
  C      2.684190    3.765110   -2.391080
  C      2.888030    4.664730   -1.172820
  C      2.691360    3.929300    0.129210
  C      1.958470    4.791570    1.135400
  C      3.971440    3.343730    0.689250
  C      3.900030    3.527400   -3.352910
  C      3.388290    4.664280   -4.172470
  C      2.347980    5.115120   -3.135200
  C      2.600800    5.801980   -1.818490
  C      3.339300    5.267630   -5.538800
  C      2.178160    4.367010   -5.090270
  C      1.300250    5.312230   -4.228920
  C      2.773780    6.645050   -5.523660
  C      4.258380    4.837690   -6.616790
  C      1.813880    3.017970   -5.404750
  C      2.541960    1.883770   -5.083720
  S      4.086040    1.940210   -4.250610
  C     -2.789360   -2.763230    0.848410
  C     -3.317680   -3.729030    0.032450
  C     -4.274560   -4.744660    0.435120
  C     -4.425180   -5.672190   -0.685130
  C     -3.607550   -5.239080   -1.743640
  C     -2.936400   -3.987430   -1.362400
  C     -5.183120   -6.822740   -0.834080
  C     -5.101560   -7.519610   -2.032890
  C     -4.276420   -7.095070   -3.063950
  C     -3.514110   -5.944300   -2.926420
  O     -2.206980   -3.316700   -2.075120
  C     -4.940940   -4.830860    1.628480
  C     -5.863860   -5.849580    1.949690
  C     -4.822130   -3.931510    2.709560
  N     -4.789130   -3.251610    3.635000
  N     -6.617580   -6.647760    2.285510
  C      3.819680    4.893050   -7.935690
  C      4.654050    4.492530   -8.962060
  C      5.930920    4.034720   -8.680450
  C      6.372230    3.982210   -7.369560
  C      5.540590    4.382910   -6.339240
  C      3.269670    7.788270   -6.114020
  C      2.549620    8.967500   -5.973830
  C      1.367380    8.995510   -5.253540
  C      0.872760    7.845620   -4.650810
  C      1.575590    6.669690   -4.799900
  C      2.626300    5.378680    2.201100
  C      1.940910    6.175100    3.101590
  C      0.583960    6.396740    2.945220
  C     -0.084530    5.825960    1.875600
  C      0.599500    5.032330    0.973650
  C      5.205830    3.719610    0.179270
  C      6.370810    3.173320    0.689130
  C      6.311780    2.247080    1.715300
  C      5.082880    1.876880    2.236340
  C      3.918760    2.422580    1.727950
  C      0.982710    1.813260    0.118160
  C      0.421700    0.999540   -0.874900
  S      0.888880    1.450240   -2.470600
  S      0.430860    1.372050    1.713150
  C     -0.530130    0.080280    1.029080
  C     -0.415460    0.004790   -0.368860
  C     -1.372670   -0.885760    1.548410
  C     -1.883210   -1.730590    0.559900
  S     -1.294400   -1.304010   -1.042410
  C     -0.564740    0.015200   -5.690850
  C     -0.598060   -1.347790   -5.624000
  C     -1.796710   -2.116420   -5.345640
  C     -1.579160   -3.467590   -5.846010
  C     -0.227490   -3.593790   -6.210730
  C      0.468310   -2.301230   -6.016640
  O      1.645970   -2.083790   -6.199420
  C     -2.852270   -1.697990   -4.582550
  C     -3.946790   -2.517790   -4.241100
  N     -4.861060   -3.145900   -3.944510
  C     -2.916910   -0.430050   -3.967360
  N     -3.007020    0.578440   -3.425500
  C     -2.444110   -4.536890   -6.008730
  C     -1.932460   -5.728330   -6.507910
  C     -0.591150   -5.856780   -6.839150
  C      0.277290   -4.782540   -6.700480
  S      0.222060    2.598980   -5.934960
  C      0.543810    0.887920   -5.713510
  C      1.846290    0.689240   -5.303250
  H      4.865520    3.663250   -2.865120
  H      2.544480    6.835740   -1.536020
  H     -3.089770   -2.783990    1.889480
  H     -5.825240   -7.183110   -0.047250
  H     -5.692150   -8.414690   -2.158610
  H     -4.229950   -7.664740   -3.979880
  H     -2.859550   -5.598970   -3.711250
  H      2.820840    5.247550   -8.146950
  H      4.306810    4.534860   -9.983750
  H      6.580820    3.719130   -9.482900
  H      7.366950    3.626320   -7.146630
  H      5.886580    4.344600   -5.317120
  H      4.193070    7.762690   -6.673290
  H      2.917100    9.872430   -6.433860
  H      0.820770    9.921900   -5.159950
  H     -0.048180    7.869770   -4.087760
  H      0.263370    5.056650   -4.028520
  H      3.685500    5.211740    2.330020
  H      2.471060    6.622670    3.929320
  H      0.049750    7.014090    3.651900
  H     -1.142100    5.998990    1.742400
  H      0.073950    4.596050    0.136160
  H      5.252230    4.457360   -0.609810
  H      7.326050    3.474530    0.284370
  H      7.220310    1.819320    2.112130
  H      5.030240    1.161780    3.043670
  H      2.963940    2.143440    2.147290
  H     -1.620980   -0.993900    2.588720
  H     -1.521740    0.526040   -5.680170
  H     -3.493930   -4.447780   -5.776570
  H     -2.595720   -6.569970   -6.643730
  H     -0.223520   -6.798640   -7.217930
  H      1.319780   -4.859670   -6.968340
  H      2.258760   -0.280700   -5.098260

 Total Charge           Charge          ....    0
 Multiplicity           Mult            ....    1
 Number of Electrons    NEL             ....  590
 Basis Dimension        Dim             .... 1352

ORBITAL ENERGIES
----------------

  NO   OCC          E(Eh)            E(eV)
   0   2.0000     -88.990477     -2421.5540
   1   2.0000     -88.988148     -2421.4906
   2   2.0000     -88.984618     -2421.3946
   3   2.0000     -88.984133     -2421.3814
   4   2.0000     -88.953959     -2420.5603
   5   2.0000     -19.252466      -523.8862
   6   2.0000     -19.251958      -523.8724
   7   2.0000     -14.444611      -393.0579
   8   2.0000     -14.444587      -393.0572
   9   2.0000     -14.444456      -393.0536
  10   2.0000     -14.440272      -392.9398
  11   2.0000     -10.401810      -283.0476
  12   2.0000     -10.397783      -282.9381
  13   2.0000     -10.371613      -282.2259
  14   2.0000     -10.370606      -282.1985
  15   2.0000     -10.370084      -282.1843
  16   2.0000     -10.367865      -282.1240
  17   2.0000     -10.358502      -281.8692
  18   2.0000     -10.357308      -281.8367
  19   2.0000     -10.355456      -281.7863
  20   2.0000     -10.352552      -281.7073
  21   2.0000     -10.346850      -281.5521
  22   2.0000     -10.346613      -281.5457
  23   2.0000     -10.346553      -281.5440
  24   2.0000     -10.345879      -281.5257
  25   2.0000     -10.345870      -281.5254
  26   2.0000     -10.345276      -281.5093
  27   2.0000     -10.345218      -281.5077
  28   2.0000     -10.343786      -281.4687
  29   2.0000     -10.341944      -281.4186
  30   2.0000     -10.341578      -281.4086
  31   2.0000     -10.340314      -281.3743
  32   2.0000     -10.339380      -281.3488
  33   2.0000     -10.338892      -281.3355
  34   2.0000     -10.338354      -281.3209
  35   2.0000     -10.338139      -281.3151
  36   2.0000     -10.336883      -281.2809
  37   2.0000     -10.335174      -281.2344
  38   2.0000     -10.332925      -281.1732
  39   2.0000     -10.331691      -281.1396
  40   2.0000     -10.330998      -281.1208
  41   2.0000     -10.330827      -281.1161
  42   2.0000     -10.329608      -281.0829
  43   2.0000     -10.329060      -281.0680
  44   2.0000     -10.328222      -281.0452
  45   2.0000     -10.327893      -281.0363
  46   2.0000     -10.327783      -281.0333
  47   2.0000     -10.327280      -281.0196
  48   2.0000     -10.324971      -280.9567
  49   2.0000     -10.324531      -280.9448
  50   2.0000     -10.323947      -280.9289
  51   2.0000     -10.322840      -280.8988
  52   2.0000     -10.322444      -280.8880
  53   2.0000     -10.319822      -280.8166
  54   2.0000     -10.319575      -280.8099
  55   2.0000     -10.319109      -280.7972
  56   2.0000     -10.318987      -280.7939
  57   2.0000     -10.316009      -280.7129
  58   2.0000     -10.312605      -280.6202
  59   2.0000     -10.312151      -280.6079
  60   2.0000     -10.311900      -280.6011
  61   2.0000     -10.310068      -280.5512
  62   2.0000     -10.309301      -280.5303
  63   2.0000     -10.309237      -280.5286
  64   2.0000     -10.304299      -280.3942
  65   2.0000     -10.303569      -280.3744
  66   2.0000     -10.301705      -280.3237
  67   2.0000     -10.301657      -280.3223
  68   2.0000     -10.301284      -280.3122
  69   2.0000     -10.301269      -280.3118
  70   2.0000     -10.301091      -280.3069
  71   2.0000     -10.300732      -280.2972
  72   2.0000     -10.300344      -280.2866
  73   2.0000     -10.299905      -280.2747
  74   2.0000     -10.299497      -280.2636
  75   2.0000     -10.299189      -280.2552
  76   2.0000     -10.299070      -280.2519
  77   2.0000     -10.298936      -280.2483
  78   2.0000     -10.296668      -280.1866
  79   2.0000     -10.296564      -280.1838
  80   2.0000     -10.296220      -280.1744
  81   2.0000     -10.295788      -280.1626
  82   2.0000     -10.295638      -280.1586
  83   2.0000      -8.104358      -220.5308
  84   2.0000      -8.100367      -220.4222
  85   2.0000      -8.097277      -220.3381
  86   2.0000      -8.095550      -220.2911
  87   2.0000      -8.067548      -219.5291
  88   2.0000      -6.063772      -165.0036
  89   2.0000      -6.060054      -164.9025
  90   2.0000      -6.059714      -164.8932
  91   2.0000      -6.057420      -164.8308
  92   2.0000      -6.056720      -164.8117
  93   2.0000      -6.055857      -164.7883
  94   2.0000      -6.055481      -164.7780
  95   2.0000      -6.053317      -164.7191
  96   2.0000      -6.052555      -164.6984
  97   2.0000      -6.050828      -164.6514
  98   2.0000      -6.048365      -164.5844
  99   2.0000      -6.047443      -164.5593
 100   2.0000      -6.028358      -164.0400
 101   2.0000      -6.024256      -163.9284
 102   2.0000      -6.017015      -163.7313
 103   2.0000      -1.169193       -31.8154
 104   2.0000      -1.168902       -31.8074
 105   2.0000      -1.104144       -30.0453
 106   2.0000      -1.061921       -28.8963
 107   2.0000      -1.052614       -28.6431
 108   2.0000      -1.049171       -28.5494
 109   2.0000      -1.041677       -28.3455
 110   2.0000      -1.035766       -28.1846
 111   2.0000      -1.030986       -28.0546
 112   2.0000      -1.027794       -27.9677
 113   2.0000      -1.025729       -27.9115
 114   2.0000      -1.022931       -27.8354
 115   2.0000      -1.010856       -27.5068
 116   2.0000      -0.998995       -27.1840
 117   2.0000      -0.987191       -26.8628
 118   2.0000      -0.985938       -26.8287
 119   2.0000      -0.981462       -26.7069
 120   2.0000      -0.979660       -26.6579
 121   2.0000      -0.978000       -26.6127
 122   2.0000      -0.961469       -26.1629
 123   2.0000      -0.951467       -25.8907
 124   2.0000      -0.942340       -25.6424
 125   2.0000      -0.934207       -25.4211
 126   2.0000      -0.932580       -25.3768
 127   2.0000      -0.922952       -25.1148
 128   2.0000      -0.915272       -24.9058
 129   2.0000      -0.907499       -24.6943
 130   2.0000      -0.897326       -24.4175
 131   2.0000      -0.894994       -24.3540
 132   2.0000      -0.893262       -24.3069
 133   2.0000      -0.888807       -24.1857
 134   2.0000      -0.875880       -23.8339
 135   2.0000      -0.872847       -23.7514
 136   2.0000      -0.870279       -23.6815
 137   2.0000      -0.869414       -23.6579
 138   2.0000      -0.867819       -23.6145
 139   2.0000      -0.866326       -23.5739
 140   2.0000      -0.862603       -23.4726
 141   2.0000      -0.860470       -23.4146
 142   2.0000      -0.852575       -23.1998
 143   2.0000      -0.839608       -22.8469
 144   2.0000      -0.831019       -22.6132
 145   2.0000      -0.826648       -22.4942
 146   2.0000      -0.818660       -22.2769
 147   2.0000      -0.805712       -21.9245
 148   2.0000      -0.799835       -21.7646
 149   2.0000      -0.797620       -21.7043
 150   2.0000      -0.793145       -21.5826
 151   2.0000      -0.768664       -20.9164
 152   2.0000      -0.759154       -20.6576
 153   2.0000      -0.746626       -20.3167
 154   2.0000      -0.738317       -20.0906
 155   2.0000      -0.733960       -19.9721
 156   2.0000      -0.729379       -19.8474
 157   2.0000      -0.728189       -19.8150
 158   2.0000      -0.727362       -19.7925
 159   2.0000      -0.726231       -19.7618
 160   2.0000      -0.724115       -19.7042
 161   2.0000      -0.717733       -19.5305
 162   2.0000      -0.714313       -19.4375
 163   2.0000      -0.712858       -19.3979
 164   2.0000      -0.712447       -19.3867
 165   2.0000      -0.709263       -19.3000
 166   2.0000      -0.700804       -19.0698
 167   2.0000      -0.689921       -18.7737
 168   2.0000      -0.686064       -18.6688
 169   2.0000      -0.681661       -18.5489
 170   2.0000      -0.679796       -18.4982
 171   2.0000      -0.671388       -18.2694
 172   2.0000      -0.663838       -18.0640
 173   2.0000      -0.661457       -17.9992
 174   2.0000      -0.656897       -17.8751
 175   2.0000      -0.647683       -17.6243
 176   2.0000      -0.644794       -17.5457
 177   2.0000      -0.644385       -17.5346
 178   2.0000      -0.642336       -17.4789
 179   2.0000      -0.640778       -17.4365
 180   2.0000      -0.634362       -17.2619
 181   2.0000      -0.629365       -17.1259
 182   2.0000      -0.621676       -16.9167
 183   2.0000      -0.616592       -16.7783
 184   2.0000      -0.613728       -16.7004
 185   2.0000      -0.605913       -16.4877
 186   2.0000      -0.604577       -16.4514
 187   2.0000      -0.599972       -16.3261
 188   2.0000      -0.594028       -16.1643
 189   2.0000      -0.589322       -16.0363
 190   2.0000      -0.586670       -15.9641
 191   2.0000      -0.581395       -15.8206
 192   2.0000      -0.577640       -15.7184
 193   2.0000      -0.575814       -15.6687
 194   2.0000      -0.572302       -15.5731
 195   2.0000      -0.570444       -15.5226
 196   2.0000      -0.568958       -15.4821
 197   2.0000      -0.568740       -15.4762
 198   2.0000      -0.567724       -15.4486
 199   2.0000      -0.565394       -15.3852
 200   2.0000      -0.564039       -15.3483
 201   2.0000      -0.563573       -15.3356
 202   2.0000      -0.561431       -15.2773
 203   2.0000      -0.561103       -15.2684
 204   2.0000      -0.555950       -15.1282
 205   2.0000      -0.555351       -15.1119
 206   2.0000      -0.553801       -15.0697
 207   2.0000      -0.553514       -15.0619
 208   2.0000      -0.547269       -14.8920
 209   2.0000      -0.546416       -14.8687
 210   2.0000      -0.545194       -14.8355
 211   2.0000      -0.542873       -14.7723
 212   2.0000      -0.539803       -14.6888
 213   2.0000      -0.536472       -14.5981
 214   2.0000      -0.533998       -14.5308
 215   2.0000      -0.532302       -14.4847
 216   2.0000      -0.530889       -14.4462
 217   2.0000      -0.530681       -14.4406
 218   2.0000      -0.528553       -14.3827
 219   2.0000      -0.527925       -14.3656
 220   2.0000      -0.526832       -14.3358
 221   2.0000      -0.524488       -14.2720
 222   2.0000      -0.520700       -14.1690
 223   2.0000      -0.517480       -14.0814
 224   2.0000      -0.515639       -14.0313
 225   2.0000      -0.511862       -13.9285
 226   2.0000      -0.508375       -13.8336
 227   2.0000      -0.503719       -13.7069
 228   2.0000      -0.498459       -13.5638
 229   2.0000      -0.496790       -13.5184
 230   2.0000      -0.495235       -13.4760
 231   2.0000      -0.489531       -13.3208
 232   2.0000      -0.489052       -13.3078
 233   2.0000      -0.488454       -13.2915
 234   2.0000      -0.484697       -13.1893
 235   2.0000      -0.484451       -13.1826
 236   2.0000      -0.482805       -13.1378
 237   2.0000      -0.480634       -13.0787
 238   2.0000      -0.477816       -13.0020
 239   2.0000      -0.477024       -12.9805
 240   2.0000      -0.475988       -12.9523
 241   2.0000      -0.474123       -12.9016
 242   2.0000      -0.473289       -12.8789
 243   2.0000      -0.472501       -12.8574
 244   2.0000      -0.471538       -12.8312
 245   2.0000      -0.470063       -12.7911
 246   2.0000      -0.468948       -12.7607
 247   2.0000      -0.463371       -12.6090
 248   2.0000      -0.460169       -12.5218
 249   2.0000      -0.459405       -12.5010
 250   2.0000      -0.457601       -12.4519
 251   2.0000      -0.455580       -12.3970
 252   2.0000      -0.454204       -12.3595
 253   2.0000      -0.452649       -12.3172
 254   2.0000      -0.452492       -12.3129
 255   2.0000      -0.450873       -12.2689
 256   2.0000      -0.449897       -12.2423
 257   2.0000      -0.446319       -12.1450
 258   2.0000      -0.445974       -12.1356
 259   2.0000      -0.445391       -12.1197
 260   2.0000      -0.443568       -12.0701
 261   2.0000      -0.438809       -11.9406
 262   2.0000      -0.437106       -11.8943
 263   2.0000      -0.435792       -11.8585
 264   2.0000      -0.434515       -11.8237
 265   2.0000      -0.430660       -11.7188
 266   2.0000      -0.429557       -11.6888
 267   2.0000      -0.427038       -11.6203
 268   2.0000      -0.419263       -11.4087
 269   2.0000      -0.407989       -11.1019
 270   2.0000      -0.403971       -10.9926
 271   2.0000      -0.399904       -10.8819
 272   2.0000      -0.388566       -10.5734
 273   2.0000      -0.376410       -10.2426
 274   2.0000      -0.373138       -10.1536
 275   2.0000      -0.368827       -10.0363
 276   2.0000      -0.368743       -10.0340
 277   2.0000      -0.365400        -9.9430
 278   2.0000      -0.361088        -9.8257
 279   2.0000      -0.358894        -9.7660
 280   2.0000      -0.356160        -9.6916
 281   2.0000      -0.354706        -9.6520
 282   2.0000      -0.353156        -9.6099
 283   2.0000      -0.349853        -9.5200
 284   2.0000      -0.348423        -9.4811
 285   2.0000      -0.343140        -9.3373
 286   2.0000      -0.342656        -9.3241
 287   2.0000      -0.338354        -9.2071
 288   2.0000      -0.335268        -9.1231
 289   2.0000      -0.334685        -9.1072
 290   2.0000      -0.330936        -9.0052
 291   2.0000      -0.321190        -8.7400
 292   2.0000      -0.311628        -8.4798
 293   2.0000      -0.292028        -7.9465
 294   2.0000      -0.282603        -7.6900
 295   0.0000      -0.060728        -1.6525
 296   0.0000      -0.059768        -1.6264
 297   0.0000      -0.035049        -0.9537
 298   0.0000      -0.028774        -0.7830
 299   0.0000       0.015141         0.4120

MULLIKEN ATOMIC CHARGES
-----------------------
   0 C :   -0.022108
   1 C :   -0.087964
   2 C :   -0.178778
   3 C :    0.100244
   4 C :    0.044874
   5 C :    0.021575
   6 C :    0.026881
   7 C :   -0.045181
   8 C :   -0.069580
   9 C :    0.039350
  10 C :   -0.055121
  11 C :    0.078964
  12 C :   -0.114576
  13 C :    0.042686
  14 C :    0.097820
  15 C :   -0.022229
  16 C :   -0.069593
  17 C :   -0.090390
  18 S :    0.098257
  19 C :    0.011888
  20 C :   -0.132131
  21 C :    0.288988
  22 C :    0.003199
  23 C :   -0.027598
  24 C :    0.237699
  25 C :   -0.033063
  26 C :    0.017257
  27 C :    0.021089
  28 C :   -0.002692
  29 O :   -0.218566
  30 C :   -0.378398
  31 C :   -0.127916
  32 C :   -0.131275
  33 N :    0.101307
  34 N :    0.100768
  35 C :   -0.010249
  36 C :   -0.010097
  37 C :    0.000611
  38 C :   -0.003195
  39 C :    0.016484
  40 C :   -0.071556
  41 C :   -0.002278
  42 C :   -0.002983
  43 C :   -0.060216
  44 C :    0.047746
  45 C :   -0.018280
  46 C :   -0.007159
  47 C :    0.000212
  48 C :   -0.004169
  49 C :   -0.030006
  50 C :   -0.019885
  51 C :    0.001262
  52 C :    0.000138
  53 C :   -0.008909
  54 C :   -0.009383
  55 C :   -0.076196
  56 C :   -0.073380
  57 S :    0.183244
  58 S :    0.180479
  59 C :   -0.021628
  60 C :   -0.046348
  61 C :   -0.048030
  62 C :   -0.091800
  63 S :    0.218423
  64 C :    0.063048
  65 C :   -0.146997
  66 C :    0.248956
  67 C :    0.025073
  68 C :   -0.061484
  69 C :    0.227251
  70 O :   -0.175493
  71 C :   -0.347240
  72 C :   -0.123286
  73 N :    0.109164
  74 C :   -0.167493
  75 N :    0.130861
  76 C :   -0.051971
  77 C :    0.008711
  78 C :    0.014656
  79 C :   -0.027578
  80 S :    0.171344
  81 C :   -0.135714
  82 C :    0.053834
  83 H :    0.059136
  84 H :    0.003654
  85 H :    0.033743
  86 H :    0.028973
  87 H :    0.027073
  88 H :    0.017707
  89 H :   -0.007035
  90 H :    0.007906
  91 H :    0.015229
  92 H :    0.016275
  93 H :    0.012373
  94 H :   -0.005503
  95 H :    0.007400
  96 H :    0.014166
  97 H :    0.015057
  98 H :    0.001009
  99 H :    0.017415
 100 H :    0.017259
 101 H :    0.011956
 102 H :    0.014704
 103 H :    0.014861
 104 H :    0.017271
 105 H :    0.008459
 106 H :    0.010772
 107 H :    0.015225
 108 H :    0.016489
 109 H :   -0.012819
 110 H :    0.036035
 111 H :    0.052783
 112 H :    0.033604
 113 H :    0.026894
 114 H :    0.029171
 115 H :    0.027719
 116 H :    0.040861
Sum of atomic charges:   -0.0000000

LOEWDIN ATOMIC CHARGES
----------------------
   0 C :   -0.166064
   1 C :   -0.048765
   2 C :   -0.039761
   3 C :    0.022914
   4 C :   -0.025108
   5 C :   -0.021422
   6 C :   -0.012473
   7 C :   -0.103347
   8 C :   -0.025955
   9 C :    0.008257
  10 C :   -0.007211
  11 C :    0.003203
  12 C :   -0.040928
  13 C :    0.013089
  14 C :   -0.006462
  15 C :   -0.028017
  16 C :   -0.171822
  17 C :   -0.217018
  18 S :    0.301794
  19 C :    0.066553
  20 C :   -0.120619
  21 C :    0.084387
  22 C :   -0.014631
  23 C :   -0.041024
  24 C :    0.100783
  25 C :    0.001176
  26 C :   -0.000554
  27 C :   -0.006141
  28 C :    0.017221
  29 O :   -0.172308
  30 C :   -0.148410
  31 C :   -0.012141
  32 C :   -0.015455
  33 N :   -0.058620
  34 N :   -0.058685
  35 C :   -0.012741
  36 C :   -0.024408
  37 C :   -0.023211
  38 C :   -0.022740
  39 C :   -0.016379
  40 C :   -0.021885
  41 C :   -0.026173
  42 C :   -0.026029
  43 C :   -0.028639
  44 C :   -0.014136
  45 C :   -0.023375
  46 C :   -0.024686
  47 C :   -0.027224
  48 C :   -0.022880
  49 C :   -0.022552
  50 C :   -0.035051
  51 C :   -0.023508
  52 C :   -0.027684
  53 C :   -0.018544
  54 C :   -0.018376
  55 C :   -0.178486
  56 C :   -0.218711
  57 S :    0.482781
  58 S :    0.406971
  59 C :   -0.202677
  60 C :   -0.196103
  61 C :   -0.018527
  62 C :   -0.188405
  63 S :    0.504566
  64 C :    0.054247
  65 C :   -0.105860
  66 C :    0.079389
  67 C :   -0.011579
  68 C :   -0.045413
  69 C :    0.095042
  70 O :   -0.141084
  71 C :   -0.137574
  72 C :   -0.009437
  73 N :   -0.063073
  74 C :   -0.025295
  75 N :   -0.056651
  76 C :   -0.006693
  77 C :   -0.007405
  78 C :   -0.006741
  79 C :    0.014226
  80 S :    0.447747
  81 C :   -0.194775
  82 C :   -0.012327
  83 H :    0.029616
  84 H :    0.024153
  85 H :    0.052700
  86 H :    0.041554
  87 H :    0.038158
  88 H :    0.033112
  89 H :    0.034077
  90 H :    0.032285
  91 H :    0.031650
  92 H :    0.031254
  93 H :    0.031489
  94 H :    0.027145
  95 H :    0.033915
  96 H :    0.031147
  97 H :    0.031199
  98 H :    0.031378
  99 H :    0.025473
 100 H :    0.033169
 101 H :    0.030837
 102 H :    0.030510
 103 H :    0.032048
 104 H :    0.032050
 105 H :    0.026394
 106 H :    0.030648
 107 H :    0.030973
 108 H :    0.032945
 109 H :    0.016666
 110 H :    0.044841
 111 H :    0.046645
 112 H :    0.040352
 113 H :    0.036566
 114 H :    0.037412
 115 H :    0.043410
 116 H :    0.039865

  Mayer bond orders larger than 0.100000
B(  0-C ,  1-C ) :   1.6333 B(  0-C ,  2-C ) :   0.9813 B(  0-C , 57-S ) :   1.1106
B(  1-C ,  4-C ) :   0.9564 B(  1-C , 55-C ) :   1.3962 B(  2-C ,  3-C ) :   0.9603
B(  2-C ,  7-C ) :   0.8671 B(  2-C ,  9-C ) :   0.9450 B(  3-C ,  4-C ) :   0.9149
B(  3-C , 10-C ) :   1.7817 B(  4-C ,  5-C ) :   0.9517 B(  4-C ,  6-C ) :   0.9190
B(  5-C , 45-C ) :   1.4231 B(  5-C , 49-C ) :   1.4038 B(  6-C , 50-C ) :   1.4544
B(  6-C , 54-C ) :   1.3803 B(  7-C ,  8-C ) :   0.9859 B(  7-C , 18-S ) :   1.0692
B(  7-C , 83-H ) :   0.8923 B(  8-C ,  9-C ) :   0.9389 B(  8-C , 11-C ) :   0.9223
B(  8-C , 12-C ) :   0.7793 B(  9-C , 10-C ) :   0.9644 B(  9-C , 13-C ) :   0.9605
B( 10-C , 84-H ) :   1.0836 B( 11-C , 12-C ) :   0.8239 B( 11-C , 14-C ) :   0.9524
B( 11-C , 15-C ) :   0.9974 B( 12-C , 13-C ) :   0.9919 B( 12-C , 16-C ) :   1.0857
B( 13-C , 44-C ) :   0.9151 B( 13-C , 99-H ) :   0.9723 B( 14-C , 40-C ) :   1.4333
B( 14-C , 44-C ) :   1.3596 B( 15-C , 35-C ) :   1.3794 B( 15-C , 39-C ) :   1.4108
B( 16-C , 17-C ) :   1.4957 B( 16-C , 80-S ) :   1.1850 B( 17-C , 18-S ) :   1.0090
B( 17-C , 82-C ) :   1.2725 B( 19-C , 20-C ) :   1.5416 B( 19-C , 62-C ) :   1.2762
B( 19-C , 85-H ) :   0.9411 B( 20-C , 21-C ) :   1.0856 B( 20-C , 24-C ) :   0.9856
B( 21-C , 22-C ) :   1.0046 B( 21-C , 30-C ) :   1.6424 B( 22-C , 23-C ) :   1.3264
B( 22-C , 25-C ) :   1.3913 B( 23-C , 24-C ) :   0.9776 B( 23-C , 28-C ) :   1.4158
B( 24-C , 29-O ) :   2.0525 B( 25-C , 26-C ) :   1.3853 B( 25-C , 86-H ) :   0.9824
B( 26-C , 27-C ) :   1.3880 B( 26-C , 87-H ) :   0.9854 B( 27-C , 28-C ) :   1.3535
B( 27-C , 88-H ) :   0.9906 B( 28-C , 89-H ) :   0.9981 B( 30-C , 31-C ) :   1.1301
B( 30-C , 32-C ) :   1.1302 B( 31-C , 34-N ) :   2.9717 B( 32-C , 33-N ) :   2.9648
B( 35-C , 36-C ) :   1.3943 B( 35-C , 90-H ) :   1.0039 B( 36-C , 37-C ) :   1.3852
B( 36-C , 91-H ) :   0.9926 B( 37-C , 38-C ) :   1.4007 B( 37-C , 92-H ) :   0.9940
B( 38-C , 39-C ) :   1.3828 B( 38-C , 93-H ) :   0.9901 B( 39-C , 94-H ) :   0.9946
B( 40-C , 41-C ) :   1.3537 B( 40-C , 95-H ) :   1.0027 B( 41-C , 42-C ) :   1.4182
B( 41-C , 96-H ) :   0.9889 B( 42-C , 43-C ) :   1.3588 B( 42-C , 97-H ) :   0.9904
B( 43-C , 44-C ) :   1.4320 B( 43-C , 98-H ) :   1.0036 B( 45-C , 46-C ) :   1.3804
B( 45-C ,100-H ) :   0.9878 B( 46-C , 47-C ) :   1.3977 B( 46-C ,101-H ) :   0.9899
B( 47-C , 48-C ) :   1.3861 B( 47-C ,102-H ) :   0.9944 B( 48-C , 49-C ) :   1.3971
B( 48-C ,103-H ) :   0.9910 B( 49-C ,104-H ) :   0.9915 B( 50-C , 51-C ) :   1.3614
B( 50-C ,105-H ) :   0.9697 B( 51-C , 52-C ) :   1.4066 B( 51-C ,106-H ) :   0.9899
B( 52-C , 53-C ) :   1.3788 B( 52-C ,107-H ) :   0.9945 B( 53-C , 54-C ) :   1.4143
B( 53-C ,108-H ) :   0.9925 B( 54-C ,109-H ) :   0.9976 B( 55-C , 56-C ) :   1.4950
B( 55-C , 58-S ) :   1.0455 B( 56-C , 57-S ) :   1.0842 B( 56-C , 60-C ) :   1.3339
B( 58-S , 59-C ) :   1.0244 B( 59-C , 60-C ) :   1.3968 B( 59-C , 61-C ) :   1.3467
B( 60-C , 63-S ) :   1.0928 B( 61-C , 62-C ) :   1.3916 B( 61-C ,110-H ) :   1.0055
B( 62-C , 63-S ) :   1.0740 B( 64-C , 65-C ) :   1.6505 B( 64-C , 81-C ) :   1.1786
B( 64-C ,111-H ) :   0.9387 B( 65-C , 66-C ) :   1.0671 B( 65-C , 69-C ) :   0.9500
B( 66-C , 67-C ) :   1.0015 B( 66-C , 71-C ) :   1.6782 B( 67-C , 68-C ) :   1.3407
B( 67-C , 76-C ) :   1.3971 B( 68-C , 69-C ) :   0.9466 B( 68-C , 79-C ) :   1.4070
B( 69-C , 70-O ) :   2.1823 B( 71-C , 72-C ) :   1.1321 B( 71-C , 74-C ) :   1.1378
B( 72-C , 73-N ) :   2.9537 B( 74-C , 75-N ) :   3.0000 B( 76-C , 77-C ) :   1.3666
B( 76-C ,112-H ) :   0.9863 B( 77-C , 78-C ) :   1.3913 B( 77-C ,113-H ) :   0.9881
B( 78-C , 79-C ) :   1.3615 B( 78-C ,114-H ) :   0.9912 B( 79-C ,115-H ) :   1.0028
B( 80-S , 81-C ) :   1.0877 B( 81-C , 82-C ) :   1.4695 B( 82-C ,116-H ) :   0.9885

-----------------------------------------------------------------------------
         ABSORPTION SPECTRUM VIA TRANSITION ELECTRIC DIPOLE MOMENTS
-----------------------------------------------------------------------------
State   Energy  Wavelength   fosc         T2         TX        TY        TZ
        (cm-1)    (nm)                  (au**2)     (au)      (au)      (au)
-----------------------------------------------------------------------------
   0   23835.3    419.5   0.246903966   3.41022  -1.14207  -1.35558   0.51798
   1   26280.0    380.5   2.163574970  27.10326   3.22815   3.96842  -0.96641
   2   29022.3    344.6   0.042318649   0.48004  -0.14368  -0.67601  -0.04900
   3   30239.8    330.7   0.112015167   1.21948  -0.91828  -0.57554   0.21212
   4   30497.9    327.9   0.059738974   0.64486  -0.27134  -0.26447  -0.70802
   5   30895.0    323.7   0.081554818   0.86903  -0.34038  -0.69086  -0.52524
   6   31349.5    319.0   0.076591301   0.80431  -0.82515   0.31865   0.14799
   7   32706.6    305.7   0.028324669   0.28510   0.34718   0.19427  -0.35613
   8   33297.1    300.3   0.092396102   0.91353  -0.73722  -0.60821  -0.01055
   9   34766.6    287.6   0.003184623   0.03016  -0.00412  -0.15155  -0.08469
  10   35098.1    284.9   0.039824654   0.37355  -0.36413  -0.25433   0.41985
  11   36133.5    276.8   0.371290525   3.38283  -0.06997   1.10678   1.46730
  12   36611.0    273.1   0.682079191   6.13337  -0.45282   2.07040   1.28132
  13   37105.2    269.5   0.020114294   0.17846   0.03342  -0.12737   0.40140
  14   37305.1    268.1   0.025339005   0.22361   0.39904   0.19435   0.16311
  15   37417.2    267.3   0.084341867   0.74207  -0.34009   0.43223   0.66301
  16   37513.9    266.6   0.040968098   0.35952  -0.48211  -0.35175   0.05806
  17   39519.3    253.0   0.198133382   1.65053   1.03343  -0.28025  -0.70994
  18   40235.7    248.5   0.274897935   2.24924   0.33456  -0.22821  -1.44403

Dispersion correction           -0.094947392
FINAL SINGLE POINT ENERGY     -5120.540058921005

DIPOLE MOMENT
-------------
                                X             Y             Z
Electronic contribution:    -30.16964     -29.57203       5.60382
Nuclear contribution   :     33.02267      30.69175      -8.06459
                        -----------------------------------------
Total Dipole Moment    :      2.85304       1.11972      -2.46077
                        -----------------------------------------
Magnitude (a.u.)       :      3.93052
Magnitude (Debye)      :      9.99059

Rotational constants in cm-1:     0.001123     0.000518     0.000408
Rotational constants in MHz :    33.664466    15.531605    12.232828

                             ****ORCA TERMINATED NORMALLY****
TOTAL RUN TIME: 0 days 0 hours 15 minutes 52 seconds 121 msec
