                         Program Version 4.2.0 -  RELEASE  -
|  1> # ORCA input file
|  2> # SCF done       -174.191982959448          0.000707253205
|  3> ! wb97x-d3 def2-SVP def2/J RIJCOSX Grid4 TightSCF
|  4> %maxcore 5000
|  5> %tddft
|  6>     Mode sTDDFT
|  7>     Ethresh 5.0
|  8>     maxcore 5000
|  9> end
| 10>
| 11> %pal
| 12>   nprocs 6
| 13>   end
| 14> * xyz 0 1
| 15>    C       -7.04294        -2.77917        -1.20312
| 16>    O       -7.87642        -1.90684        -1.02297
| 17>    C       -7.29860        -4.13890        -1.70864
| 18>    C       -8.49632        -4.70962        -2.09132
| 19>    C       -8.48163        -6.02259        -2.54107
| 20>    C       -7.29096        -6.73192        -2.59946
| 21>    C       -6.08447        -6.16066        -2.21422
| 22>    C       -6.08671        -4.85016        -1.76370
| 23>    C       -5.00701        -3.97947        -1.29716
| 24>    C       -3.68699        -4.33867        -1.20688
| 25>    C       -2.63372        -3.51357        -0.76010
| 26>    N       -1.72152        -2.90836        -0.40982
| 27>    C       -3.18545        -5.61122        -1.55460
| 28>    N       -2.70605        -6.62024        -1.81872
| 29>    C       -5.59942        -2.69917        -0.95952
| 30>    C       -4.91403        -1.60404        -0.49617
| 31>    C       -5.35565        -0.32047        -0.15466
| 32>    S       -7.03131         0.22381        -0.22240
| 33>    C       -6.55645         1.79174         0.31437
| 34>    C       -5.16945         1.87604         0.52684
| 35>    C       -4.48400         0.69456         0.27700
| 36>    C       -2.99964         0.58155         0.39771
| 37>    C       -2.32437         0.81810        -0.95625
| 38>    S       -4.62761         3.46216         1.04329
| 39>    C       -6.26554         4.00935         0.96162
| 40>    C       -7.17956         3.01505         0.57930
| 41>    N       -8.43693         3.54342         0.51038
| 42>    C       -9.50615         2.77978        -0.09237
| 43>    C      -10.05502         1.70969         0.85043
| 44>    C       -8.35775         4.88342         0.84234
| 45>    C       -6.98772         5.19722         1.10062
| 46>    C       -6.54920         6.52354         1.32551
| 47>    N       -5.32012         6.95834         1.54867
| 48>    S       -5.35644         8.57496         1.64201
| 49>    N       -6.94454         8.77861         1.39603
| 50>    C       -7.50137         7.58945         1.24082
| 51>    C       -8.86824         7.27372         1.05504
| 52>    C       -9.32631         5.91445         0.93858
| 53>    N      -10.69486         5.92192         0.93563
| 54>    C      -11.67205         4.88570         1.17900
| 55>    C      -12.62070         4.71562        -0.00478
| 56>    C      -11.12747         7.22910         0.97889
| 57>    C       -9.99221         8.08959         1.02665
| 58>    S      -10.40192         9.73970         1.20495
| 59>    C      -12.18199         9.22847         1.10318
| 60>    C      -12.34981         7.83827         1.14464
| 61>    S      -14.22499        12.66877         1.22720
| 62>    C      -13.00966        11.54300         1.13169
| 63>    C      -13.21124        10.14211         1.08902
| 64>    C      -14.60888         9.62215         0.96444
| 65>    C      -14.96419         9.42451        -0.51168
| 66>    C      -11.70851        12.20169         1.17608
| 67>    C      -11.04097        12.57077         0.06059
| 68>    C       -9.79177        13.29702        -0.08397
| 69>    C       -9.01063        13.78364         0.92597
| 70>    C       -7.78676        14.45922         0.73185
| 71>    N       -6.78852        15.01787         0.63934
| 72>    C       -9.32218        13.67410         2.29872
| 73>    N       -9.52033        13.62223         3.42811
| 74>    C       -9.50847        13.37703        -1.51492
| 75>    C       -8.45794        13.96442        -2.20420
| 76>    C       -8.44724        13.88674        -3.59030
| 77>    C       -9.45657        13.23849        -4.28861
| 78>    C      -10.51242        12.64627        -3.61083
| 79>    C      -10.52866        12.72166        -2.23121
| 80>    C      -11.52425        12.18361        -1.28908
| 81>    O      -12.52747        11.55017        -1.53540
| 82>    H       -9.41024        -4.13823        -2.03724
| 83>    H       -9.40190        -6.49624        -2.84787
| 84>    H       -7.29705        -7.75230        -2.95210
| 85>    H       -5.17640        -6.73777        -2.27156
| 86>    H       -3.84697        -1.73106        -0.37602
| 87>    H       -2.65679         1.34101         1.10321
| 88>    H       -2.70876        -0.39734         0.78131
| 89>    H       -2.57138         1.80732        -1.33457
| 90>    H       -1.24640         0.74460        -0.84652
| 91>    H       -2.64735         0.07656        -1.68325
| 92>    H      -10.28342         3.46388        -0.42480
| 93>    H       -9.09664         2.28125        -0.97788
| 94>    H      -10.30681         2.12297         1.82493
| 95>    H      -10.94514         1.26388         0.41625
| 96>    H       -9.31869         0.92473         0.99728
| 97>    H      -11.16942         3.95827         1.43695
| 98>    H      -12.26376         5.20663         2.04414
| 99>    H      -12.08629         4.47452        -0.92148
|100>    H      -13.33036         3.92065         0.20541
|101>    H      -13.16852         5.64136        -0.16167
|102>    H      -14.67333         8.66232         1.48029
|103>    H      -15.30335        10.33578         1.40959
|104>    H      -14.32058         8.66668        -0.95210
|105>    H      -15.99994         9.10913        -0.60612
|106>    H      -14.82412        10.35242        -1.05943
|107>    H      -11.35991        12.49094         2.15965
|108>    H       -7.66156        14.47504        -1.68777
|109>    H       -7.63371        14.34285        -4.13434
|110>    H       -9.41863        13.19646        -5.36677
|111>    H      -11.30825        12.13830        -4.13383
|112> *
|113>
|114>                          ****END OF INPUT****

CARTESIAN COORDINATES (ANGSTROEM)
---------------------------------
  C     -7.042940   -2.779170   -1.203120
  O     -7.876420   -1.906840   -1.022970
  C     -7.298600   -4.138900   -1.708640
  C     -8.496320   -4.709620   -2.091320
  C     -8.481630   -6.022590   -2.541070
  C     -7.290960   -6.731920   -2.599460
  C     -6.084470   -6.160660   -2.214220
  C     -6.086710   -4.850160   -1.763700
  C     -5.007010   -3.979470   -1.297160
  C     -3.686990   -4.338670   -1.206880
  C     -2.633720   -3.513570   -0.760100
  N     -1.721520   -2.908360   -0.409820
  C     -3.185450   -5.611220   -1.554600
  N     -2.706050   -6.620240   -1.818720
  C     -5.599420   -2.699170   -0.959520
  C     -4.914030   -1.604040   -0.496170
  C     -5.355650   -0.320470   -0.154660
  S     -7.031310    0.223810   -0.222400
  C     -6.556450    1.791740    0.314370
  C     -5.169450    1.876040    0.526840
  C     -4.484000    0.694560    0.277000
  C     -2.999640    0.581550    0.397710
  C     -2.324370    0.818100   -0.956250
  S     -4.627610    3.462160    1.043290
  C     -6.265540    4.009350    0.961620
  C     -7.179560    3.015050    0.579300
  N     -8.436930    3.543420    0.510380
  C     -9.506150    2.779780   -0.092370
  C    -10.055020    1.709690    0.850430
  C     -8.357750    4.883420    0.842340
  C     -6.987720    5.197220    1.100620
  C     -6.549200    6.523540    1.325510
  N     -5.320120    6.958340    1.548670
  S     -5.356440    8.574960    1.642010
  N     -6.944540    8.778610    1.396030
  C     -7.501370    7.589450    1.240820
  C     -8.868240    7.273720    1.055040
  C     -9.326310    5.914450    0.938580
  N    -10.694860    5.921920    0.935630
  C    -11.672050    4.885700    1.179000
  C    -12.620700    4.715620   -0.004780
  C    -11.127470    7.229100    0.978890
  C     -9.992210    8.089590    1.026650
  S    -10.401920    9.739700    1.204950
  C    -12.181990    9.228470    1.103180
  C    -12.349810    7.838270    1.144640
  S    -14.224990   12.668770    1.227200
  C    -13.009660   11.543000    1.131690
  C    -13.211240   10.142110    1.089020
  C    -14.608880    9.622150    0.964440
  C    -14.964190    9.424510   -0.511680
  C    -11.708510   12.201690    1.176080
  C    -11.040970   12.570770    0.060590
  C     -9.791770   13.297020   -0.083970
  C     -9.010630   13.783640    0.925970
  C     -7.786760   14.459220    0.731850
  N     -6.788520   15.017870    0.639340
  C     -9.322180   13.674100    2.298720
  N     -9.520330   13.622230    3.428110
  C     -9.508470   13.377030   -1.514920
  C     -8.457940   13.964420   -2.204200
  C     -8.447240   13.886740   -3.590300
  C     -9.456570   13.238490   -4.288610
  C    -10.512420   12.646270   -3.610830
  C    -10.528660   12.721660   -2.231210
  C    -11.524250   12.183610   -1.289080
  O    -12.527470   11.550170   -1.535400
  H     -9.410240   -4.138230   -2.037240
  H     -9.401900   -6.496240   -2.847870
  H     -7.297050   -7.752300   -2.952100
  H     -5.176400   -6.737770   -2.271560
  H     -3.846970   -1.731060   -0.376020
  H     -2.656790    1.341010    1.103210
  H     -2.708760   -0.397340    0.781310
  H     -2.571380    1.807320   -1.334570
  H     -1.246400    0.744600   -0.846520
  H     -2.647350    0.076560   -1.683250
  H    -10.283420    3.463880   -0.424800
  H     -9.096640    2.281250   -0.977880
  H    -10.306810    2.122970    1.824930
  H    -10.945140    1.263880    0.416250
  H     -9.318690    0.924730    0.997280
  H    -11.169420    3.958270    1.436950
  H    -12.263760    5.206630    2.044140
  H    -12.086290    4.474520   -0.921480
  H    -13.330360    3.920650    0.205410
  H    -13.168520    5.641360   -0.161670
  H    -14.673330    8.662320    1.480290
  H    -15.303350   10.335780    1.409590
  H    -14.320580    8.666680   -0.952100
  H    -15.999940    9.109130   -0.606120
  H    -14.824120   10.352420   -1.059430
  H    -11.359910   12.490940    2.159650
  H     -7.661560   14.475040   -1.687770
  H     -7.633710   14.342850   -4.134340
  H     -9.418630   13.196460   -5.366770
  H    -11.308250   12.138300   -4.133830

 Total Charge           Charge          ....    0
 Multiplicity           Mult            ....    1
 Number of Electrons    NEL             ....  494
 Basis Dimension        Dim             .... 1108

ORBITAL ENERGIES
----------------

  NO   OCC          E(Eh)            E(eV)
   0   2.0000     -89.031573     -2422.6723
   1   2.0000     -88.997770     -2421.7525
   2   2.0000     -88.993417     -2421.6340
   3   2.0000     -88.970210     -2421.0025
   4   2.0000     -88.938209     -2420.1317
   5   2.0000     -19.262316      -524.1543
   6   2.0000     -19.259506      -524.0778
   7   2.0000     -14.532757      -395.4564
   8   2.0000     -14.519417      -395.0934
   9   2.0000     -14.472764      -393.8239
  10   2.0000     -14.470069      -393.7506
  11   2.0000     -14.458096      -393.4248
  12   2.0000     -14.452342      -393.2682
  13   2.0000     -14.451615      -393.2484
  14   2.0000     -14.450390      -393.2151
  15   2.0000     -10.408227      -283.2223
  16   2.0000     -10.404534      -283.1218
  17   2.0000     -10.393844      -282.8309
  18   2.0000     -10.386747      -282.6378
  19   2.0000     -10.381866      -282.5049
  20   2.0000     -10.381318      -282.4900
  21   2.0000     -10.381149      -282.4854
  22   2.0000     -10.379579      -282.4427
  23   2.0000     -10.378968      -282.4261
  24   2.0000     -10.371632      -282.2265
  25   2.0000     -10.365287      -282.0538
  26   2.0000     -10.363086      -281.9939
  27   2.0000     -10.361568      -281.9526
  28   2.0000     -10.359445      -281.8948
  29   2.0000     -10.357525      -281.8426
  30   2.0000     -10.357254      -281.8352
  31   2.0000     -10.356369      -281.8111
  32   2.0000     -10.356360      -281.8109
  33   2.0000     -10.355366      -281.7838
  34   2.0000     -10.352165      -281.6967
  35   2.0000     -10.352020      -281.6928
  36   2.0000     -10.351993      -281.6920
  37   2.0000     -10.350879      -281.6617
  38   2.0000     -10.348635      -281.6007
  39   2.0000     -10.348619      -281.6002
  40   2.0000     -10.348189      -281.5885
  41   2.0000     -10.347074      -281.5582
  42   2.0000     -10.343741      -281.4675
  43   2.0000     -10.343641      -281.4648
  44   2.0000     -10.343617      -281.4641
  45   2.0000     -10.338203      -281.3168
  46   2.0000     -10.335256      -281.2366
  47   2.0000     -10.333067      -281.1770
  48   2.0000     -10.333054      -281.1767
  49   2.0000     -10.332681      -281.1665
  50   2.0000     -10.331769      -281.1417
  51   2.0000     -10.331321      -281.1295
  52   2.0000     -10.331229      -281.1270
  53   2.0000     -10.330906      -281.1183
  54   2.0000     -10.330577      -281.1093
  55   2.0000     -10.330281      -281.1012
  56   2.0000     -10.329887      -281.0905
  57   2.0000     -10.329181      -281.0713
  58   2.0000     -10.328717      -281.0587
  59   2.0000     -10.328341      -281.0484
  60   2.0000     -10.319694      -280.8131
  61   2.0000     -10.316709      -280.7319
  62   2.0000     -10.301352      -280.3140
  63   2.0000     -10.298202      -280.2283
  64   2.0000     -10.286036      -279.8973
  65   2.0000     -10.279837      -279.7286
  66   2.0000     -10.272977      -279.5419
  67   2.0000      -8.142771      -221.5761
  68   2.0000      -8.108575      -220.6455
  69   2.0000      -8.106168      -220.5801
  70   2.0000      -8.082941      -219.9480
  71   2.0000      -8.052425      -219.1176
  72   2.0000      -6.104605      -166.1148
  73   2.0000      -6.096707      -165.8998
  74   2.0000      -6.094382      -165.8366
  75   2.0000      -6.068642      -165.1361
  76   2.0000      -6.066308      -165.0726
  77   2.0000      -6.063907      -165.0073
  78   2.0000      -6.062259      -164.9625
  79   2.0000      -6.060389      -164.9116
  80   2.0000      -6.057149      -164.8234
  81   2.0000      -6.042855      -164.4344
  82   2.0000      -6.039127      -164.3330
  83   2.0000      -6.033971      -164.1927
  84   2.0000      -6.011463      -163.5802
  85   2.0000      -6.011088      -163.5700
  86   2.0000      -6.001826      -163.3180
  87   2.0000      -1.179435       -32.0941
  88   2.0000      -1.175951       -31.9992
  89   2.0000      -1.161241       -31.5990
  90   2.0000      -1.152721       -31.3671
  91   2.0000      -1.142195       -31.0807
  92   2.0000      -1.061386       -28.8818
  93   2.0000      -1.058605       -28.8061
  94   2.0000      -1.055687       -28.7267
  95   2.0000      -1.040359       -28.3096
  96   2.0000      -1.037181       -28.2231
  97   2.0000      -1.033908       -28.1341
  98   2.0000      -1.032678       -28.1006
  99   2.0000      -1.018735       -27.7212
 100   2.0000      -1.014384       -27.6028
 101   2.0000      -1.007099       -27.4046
 102   2.0000      -0.996806       -27.1245
 103   2.0000      -0.992308       -27.0021
 104   2.0000      -0.986504       -26.8441
 105   2.0000      -0.980350       -26.6767
 106   2.0000      -0.952498       -25.9188
 107   2.0000      -0.943417       -25.6717
 108   2.0000      -0.940712       -25.5981
 109   2.0000      -0.939272       -25.5589
 110   2.0000      -0.929530       -25.2938
 111   2.0000      -0.923093       -25.1186
 112   2.0000      -0.918937       -25.0056
 113   2.0000      -0.901294       -24.5255
 114   2.0000      -0.900373       -24.5004
 115   2.0000      -0.898451       -24.4481
 116   2.0000      -0.883502       -24.0413
 117   2.0000      -0.881292       -23.9812
 118   2.0000      -0.870265       -23.6811
 119   2.0000      -0.866066       -23.5669
 120   2.0000      -0.852296       -23.1922
 121   2.0000      -0.841582       -22.9006
 122   2.0000      -0.840988       -22.8844
 123   2.0000      -0.826835       -22.4993
 124   2.0000      -0.821180       -22.3455
 125   2.0000      -0.809462       -22.0266
 126   2.0000      -0.805055       -21.9067
 127   2.0000      -0.795217       -21.6390
 128   2.0000      -0.790343       -21.5063
 129   2.0000      -0.782832       -21.3019
 130   2.0000      -0.764245       -20.7962
 131   2.0000      -0.760521       -20.6948
 132   2.0000      -0.752320       -20.4717
 133   2.0000      -0.749391       -20.3920
 134   2.0000      -0.739093       -20.1117
 135   2.0000      -0.737079       -20.0569
 136   2.0000      -0.731617       -19.9083
 137   2.0000      -0.726924       -19.7806
 138   2.0000      -0.722321       -19.6554
 139   2.0000      -0.717684       -19.5292
 140   2.0000      -0.711538       -19.3619
 141   2.0000      -0.700628       -19.0651
 142   2.0000      -0.693555       -18.8726
 143   2.0000      -0.688142       -18.7253
 144   2.0000      -0.677093       -18.4246
 145   2.0000      -0.675722       -18.3873
 146   2.0000      -0.667311       -18.1585
 147   2.0000      -0.661569       -18.0022
 148   2.0000      -0.655272       -17.8309
 149   2.0000      -0.652705       -17.7610
 150   2.0000      -0.650827       -17.7099
 151   2.0000      -0.639885       -17.4122
 152   2.0000      -0.634475       -17.2649
 153   2.0000      -0.628843       -17.1117
 154   2.0000      -0.617038       -16.7904
 155   2.0000      -0.614216       -16.7137
 156   2.0000      -0.613197       -16.6859
 157   2.0000      -0.608183       -16.5495
 158   2.0000      -0.605452       -16.4752
 159   2.0000      -0.595619       -16.2076
 160   2.0000      -0.588524       -16.0145
 161   2.0000      -0.587080       -15.9753
 162   2.0000      -0.584829       -15.9140
 163   2.0000      -0.582578       -15.8528
 164   2.0000      -0.580824       -15.8050
 165   2.0000      -0.579607       -15.7719
 166   2.0000      -0.578368       -15.7382
 167   2.0000      -0.574825       -15.6418
 168   2.0000      -0.572002       -15.5650
 169   2.0000      -0.570422       -15.5220
 170   2.0000      -0.567026       -15.4296
 171   2.0000      -0.565361       -15.3843
 172   2.0000      -0.564862       -15.3707
 173   2.0000      -0.563059       -15.3216
 174   2.0000      -0.557582       -15.1726
 175   2.0000      -0.551925       -15.0186
 176   2.0000      -0.551727       -15.0132
 177   2.0000      -0.549644       -14.9566
 178   2.0000      -0.547585       -14.9005
 179   2.0000      -0.545047       -14.8315
 180   2.0000      -0.538922       -14.6648
 181   2.0000      -0.537448       -14.6247
 182   2.0000      -0.535715       -14.5775
 183   2.0000      -0.533504       -14.5174
 184   2.0000      -0.526654       -14.3310
 185   2.0000      -0.525440       -14.2979
 186   2.0000      -0.518419       -14.1069
 187   2.0000      -0.515762       -14.0346
 188   2.0000      -0.514750       -14.0071
 189   2.0000      -0.510861       -13.9012
 190   2.0000      -0.508309       -13.8318
 191   2.0000      -0.503723       -13.7070
 192   2.0000      -0.501591       -13.6490
 193   2.0000      -0.498278       -13.5588
 194   2.0000      -0.495698       -13.4886
 195   2.0000      -0.495511       -13.4835
 196   2.0000      -0.494855       -13.4657
 197   2.0000      -0.493557       -13.4304
 198   2.0000      -0.490618       -13.3504
 199   2.0000      -0.489598       -13.3226
 200   2.0000      -0.489239       -13.3129
 201   2.0000      -0.487957       -13.2780
 202   2.0000      -0.485463       -13.2101
 203   2.0000      -0.483968       -13.1694
 204   2.0000      -0.482817       -13.1381
 205   2.0000      -0.481349       -13.0982
 206   2.0000      -0.479351       -13.0438
 207   2.0000      -0.478613       -13.0237
 208   2.0000      -0.474399       -12.9090
 209   2.0000      -0.468918       -12.7599
 210   2.0000      -0.466511       -12.6944
 211   2.0000      -0.465842       -12.6762
 212   2.0000      -0.464329       -12.6350
 213   2.0000      -0.461789       -12.5659
 214   2.0000      -0.460769       -12.5382
 215   2.0000      -0.458678       -12.4813
 216   2.0000      -0.458034       -12.4638
 217   2.0000      -0.453857       -12.3501
 218   2.0000      -0.446308       -12.1447
 219   2.0000      -0.445737       -12.1291
 220   2.0000      -0.444559       -12.0971
 221   2.0000      -0.443673       -12.0730
 222   2.0000      -0.439944       -11.9715
 223   2.0000      -0.439370       -11.9559
 224   2.0000      -0.438509       -11.9324
 225   2.0000      -0.434507       -11.8235
 226   2.0000      -0.429156       -11.6779
 227   2.0000      -0.424917       -11.5626
 228   2.0000      -0.422048       -11.4845
 229   2.0000      -0.406039       -11.0489
 230   2.0000      -0.399220       -10.8633
 231   2.0000      -0.384079       -10.4513
 232   2.0000      -0.380957       -10.3664
 233   2.0000      -0.379811       -10.3352
 234   2.0000      -0.377469       -10.2715
 235   2.0000      -0.372525       -10.1369
 236   2.0000      -0.371592       -10.1115
 237   2.0000      -0.364623        -9.9219
 238   2.0000      -0.354615        -9.6496
 239   2.0000      -0.352733        -9.5984
 240   2.0000      -0.348296        -9.4776
 241   2.0000      -0.327683        -8.9167
 242   2.0000      -0.323756        -8.8098
 243   2.0000      -0.319033        -8.6813
 244   2.0000      -0.305657        -8.3173
 245   2.0000      -0.292833        -7.9684
 246   2.0000      -0.282885        -7.6977
 247   0.0000      -0.093371        -2.5408
 248   0.0000      -0.068664        -1.8684
 249   0.0000      -0.059445        -1.6176
 250   0.0000      -0.042127        -1.1463
 251   0.0000      -0.032237        -0.8772

MULLIKEN ATOMIC CHARGES
-----------------------
   0 C :    0.234411
   1 O :   -0.207024
   2 C :   -0.065674
   3 C :   -0.024929
   4 C :    0.014667
   5 C :    0.018679
   6 C :   -0.037627
   7 C :    0.011096
   8 C :    0.292838
   9 C :   -0.383529
  10 C :   -0.119087
  11 N :    0.095243
  12 C :   -0.127036
  13 N :    0.107699
  14 C :   -0.146351
  15 C :    0.000805
  16 C :   -0.105466
  17 S :    0.193876
  18 C :   -0.018343
  19 C :   -0.090067
  20 C :   -0.085307
  21 C :    0.002706
  22 C :   -0.013600
  23 S :    0.208653
  24 C :   -0.057446
  25 C :    0.041345
  26 N :   -0.238355
  27 C :    0.052475
  28 C :   -0.045026
  29 C :    0.087307
  30 C :   -0.100672
  31 C :    0.016622
  32 N :   -0.296086
  33 S :    0.484467
  34 N :   -0.291306
  35 C :    0.033150
  36 C :   -0.132696
  37 C :    0.144021
  38 N :   -0.239238
  39 C :    0.087345
  40 C :   -0.047506
  41 C :    0.125064
  42 C :    0.013319
  43 S :    0.062200
  44 C :   -0.100564
  45 C :   -0.259772
  46 S :   -0.042371
  47 C :   -0.154464
  48 C :    0.033569
  49 C :    0.056632
  50 C :   -0.018980
  51 C :   -0.044760
  52 C :   -0.062685
  53 C :    0.304933
  54 C :   -0.354301
  55 C :   -0.128414
  56 N :    0.111367
  57 C :   -0.135551
  58 N :    0.118144
  59 C :    0.007960
  60 C :   -0.029496
  61 C :    0.016916
  62 C :    0.012380
  63 C :   -0.015505
  64 C :   -0.072011
  65 C :    0.218801
  66 O :   -0.157923
  67 H :    0.023567
  68 H :    0.030304
  69 H :    0.031822
  70 H :    0.032183
  71 H :   -0.007411
  72 H :    0.041887
  73 H :    0.060836
  74 H :    0.035311
  75 H :    0.058570
  76 H :    0.032855
  77 H :    0.037196
  78 H :    0.063605
  79 H :    0.058622
  80 H :    0.056698
  81 H :    0.052239
  82 H :    0.013368
  83 H :    0.066594
  84 H :    0.038507
  85 H :    0.045017
  86 H :    0.064351
  87 H :    0.052211
  88 H :    0.031538
  89 H :    0.028363
  90 H :    0.033437
  91 H :    0.039669
  92 H :    0.095141
  93 H :    0.031497
  94 H :    0.032517
  95 H :    0.033507
  96 H :    0.026476
Sum of atomic charges:   -0.0000000

LOEWDIN ATOMIC CHARGES
----------------------
   0 C :    0.093817
   1 O :   -0.172608
   2 C :   -0.049021
   3 C :    0.011993
   4 C :   -0.004355
   5 C :   -0.000352
   6 C :    0.002325
   7 C :   -0.017642
   8 C :    0.082872
   9 C :   -0.150672
  10 C :   -0.011927
  11 N :   -0.059602
  12 C :   -0.013799
  13 N :   -0.055559
  14 C :   -0.125894
  15 C :    0.065803
  16 C :   -0.193500
  17 S :    0.483113
  18 C :   -0.198241
  19 C :   -0.192999
  20 C :   -0.011727
  21 C :   -0.034406
  22 C :   -0.044568
  23 S :    0.418912
  24 C :   -0.170467
  25 C :   -0.033063
  26 N :    0.047755
  27 C :    0.037966
  28 C :   -0.064434
  29 C :    0.000887
  30 C :   -0.064029
  31 C :   -0.057783
  32 N :   -0.282595
  33 S :    0.601158
  34 N :   -0.280736
  35 C :   -0.049684
  36 C :   -0.102487
  37 C :    0.058604
  38 N :    0.045824
  39 C :    0.043297
  40 C :   -0.061885
  41 C :   -0.081504
  42 C :   -0.115735
  43 S :    0.348131
  44 C :   -0.119112
  45 C :   -0.206174
  46 S :    0.124481
  47 C :   -0.113154
  48 C :    0.005271
  49 C :   -0.030040
  50 C :   -0.044646
  51 C :    0.033254
  52 C :   -0.090915
  53 C :    0.078255
  54 C :   -0.128735
  55 C :   -0.011609
  56 N :   -0.048545
  57 C :   -0.011991
  58 N :   -0.043371
  59 C :   -0.014396
  60 C :    0.003282
  61 C :    0.001635
  62 C :   -0.003133
  63 C :    0.015539
  64 C :   -0.048603
  65 C :    0.096364
  66 O :   -0.130264
  67 H :    0.042029
  68 H :    0.037859
  69 H :    0.039948
  70 H :    0.042536
  71 H :    0.047569
  72 H :    0.035054
  73 H :    0.039691
  74 H :    0.027682
  75 H :    0.036368
  76 H :    0.025802
  77 H :    0.029815
  78 H :    0.035769
  79 H :    0.029203
  80 H :    0.039599
  81 H :    0.023806
  82 H :    0.021132
  83 H :    0.043670
  84 H :    0.021068
  85 H :    0.033733
  86 H :    0.037362
  87 H :    0.038319
  88 H :    0.018809
  89 H :    0.022870
  90 H :    0.025841
  91 H :    0.025758
  92 H :    0.058655
  93 H :    0.042586
  94 H :    0.040249
  95 H :    0.038795
  96 H :    0.043846

  Mayer bond orders larger than 0.100000
B(  0-C ,  1-O ) :   2.1117 B(  0-C ,  2-C ) :   0.9698 B(  0-C , 14-C ) :   0.9733
B(  2-C ,  3-C ) :   1.4073 B(  2-C ,  7-C ) :   1.3342 B(  3-C ,  4-C ) :   1.3538
B(  3-C , 67-H ) :   1.0053 B(  4-C ,  5-C ) :   1.3919 B(  4-C , 68-H ) :   0.9905
B(  5-C ,  6-C ) :   1.3837 B(  5-C , 69-H ) :   0.9851 B(  6-C ,  7-C ) :   1.3932
B(  6-C , 70-H ) :   0.9837 B(  7-C ,  8-C ) :   1.0003 B(  8-C ,  9-C ) :   1.6339
B(  8-C , 14-C ) :   1.0953 B(  9-C , 10-C ) :   1.1385 B(  9-C , 12-C ) :   1.1310
B( 10-C , 11-N ) :   2.9525 B( 12-C , 13-N ) :   2.9713 B( 14-C , 15-C ) :   1.5456
B( 15-C , 16-C ) :   1.2972 B( 15-C , 71-H ) :   0.9273 B( 16-C , 17-S ) :   1.0492
B( 16-C , 20-C ) :   1.4011 B( 17-S , 18-C ) :   1.0332 B( 18-C , 19-C ) :   1.4203
B( 18-C , 25-C ) :   1.3029 B( 19-C , 20-C ) :   1.4385 B( 19-C , 23-S ) :   1.0225
B( 20-C , 21-C ) :   1.0550 B( 21-C , 22-C ) :   1.0890 B( 21-C , 72-H ) :   0.9320
B( 21-C , 73-H ) :   0.9137 B( 22-C , 74-H ) :   0.9700 B( 22-C , 75-H ) :   0.9708
B( 22-C , 76-H ) :   0.9725 B( 23-S , 24-C ) :   1.0173 B( 24-C , 25-C ) :   1.3985
B( 24-C , 30-C ) :   1.4184 B( 25-C , 26-N ) :   1.1640 B( 26-N , 27-C ) :   0.9191
B( 26-N , 29-C ) :   1.1706 B( 27-C , 28-C ) :   1.0845 B( 27-C , 77-H ) :   0.9513
B( 27-C , 78-H ) :   0.9494 B( 28-C , 79-H ) :   0.9605 B( 28-C , 80-H ) :   0.9695
B( 28-C , 81-H ) :   0.9561 B( 29-C , 30-C ) :   1.3749 B( 29-C , 37-C ) :   1.1355
B( 30-C , 31-C ) :   1.1182 B( 31-C , 32-N ) :   1.6267 B( 31-C , 35-C ) :   1.1405
B( 32-N , 33-S ) :   1.2278 B( 32-N , 34-N ) :   0.1252 B( 33-S , 34-N ) :   1.2237
B( 34-N , 35-C ) :   1.6333 B( 35-C , 36-C ) :   1.1248 B( 36-C , 37-C ) :   1.3052
B( 36-C , 42-C ) :   1.4484 B( 37-C , 38-N ) :   1.2639 B( 38-N , 39-C ) :   0.9199
B( 38-N , 41-C ) :   1.0510 B( 39-C , 40-C ) :   1.0884 B( 39-C , 82-H ) :   0.9535
B( 39-C , 83-H ) :   0.9399 B( 40-C , 84-H ) :   0.9625 B( 40-C , 85-H ) :   0.9684
B( 40-C , 86-H ) :   0.9543 B( 41-C , 42-C ) :   1.1762 B( 41-C , 45-C ) :   1.3061
B( 42-C , 43-S ) :   1.0956 B( 43-S , 44-C ) :   0.8582 B( 43-S , 45-C ) :   0.1506
B( 44-C , 45-C ) :   1.1691 B( 44-C , 48-C ) :   1.6397 B( 46-S , 47-C ) :   1.7587
B( 47-C , 48-C ) :   1.0900 B( 47-C , 51-C ) :   0.9922 B( 48-C , 49-C ) :   1.0819
B( 49-C , 50-C ) :   1.0822 B( 49-C , 87-H ) :   0.9024 B( 49-C , 88-H ) :   0.9138
B( 50-C , 89-H ) :   0.9697 B( 50-C , 90-H ) :   0.9731 B( 50-C , 91-H ) :   0.9672
B( 51-C , 52-C ) :   1.7645 B( 51-C , 92-H ) :   0.9209 B( 52-C , 53-C ) :   1.0321
B( 52-C , 65-C ) :   0.9380 B( 53-C , 54-C ) :   1.6879 B( 53-C , 59-C ) :   1.0154
B( 54-C , 55-C ) :   1.1216 B( 54-C , 57-C ) :   1.1383 B( 55-C , 56-N ) :   2.9750
B( 57-C , 58-N ) :   2.9671 B( 59-C , 60-C ) :   1.3888 B( 59-C , 64-C ) :   1.3270
B( 60-C , 61-C ) :   1.3919 B( 60-C , 93-H ) :   0.9825 B( 61-C , 62-C ) :   1.3831
B( 61-C , 94-H ) :   0.9851 B( 62-C , 63-C ) :   1.3624 B( 62-C , 95-H ) :   0.9900
B( 63-C , 64-C ) :   1.4059 B( 63-C , 96-H ) :   1.0035 B( 64-C , 65-C ) :   0.9587
B( 65-C , 66-O ) :   2.1798

-----------------------------------------------------------------------------
         ABSORPTION SPECTRUM VIA TRANSITION ELECTRIC DIPOLE MOMENTS
-----------------------------------------------------------------------------
State   Energy  Wavelength   fosc         T2         TX        TY        TZ
        (cm-1)    (nm)                  (au**2)     (au)      (au)      (au)
-----------------------------------------------------------------------------
   0    9749.7   1025.7   0.003782476   0.12772  -0.24669  -0.17985  -0.18579
   1   17015.1    587.7   0.020151285   0.38989   0.02190   0.61832  -0.08420
   2   18469.0    541.4   0.521134686   9.28927  -1.71930   2.49397   0.33669
   3   19744.4    506.5   2.280169758  38.01876  -2.51262   5.59355   0.64630
   4   25490.4    392.3   0.140185750   1.81051   0.01482   1.06318   0.82459
   5   27667.3    361.4   0.035695726   0.42474   0.63158  -0.14569   0.06801
   6   28410.7    352.0   0.083240000   0.96455   0.97621   0.03686   0.10102
   7   29141.6    343.2   0.011383768   0.12860   0.29015  -0.17314  -0.12016
   8   29745.1    336.2   0.170355963   1.88546   1.24161   0.57571   0.11141
   9   30154.0    331.6   0.040110876   0.43792  -0.57282   0.02212  -0.33062
  10   30463.0    328.3   0.001160289   0.01254   0.00002  -0.10185   0.04653
  11   30882.5    323.8   0.060957799   0.64982  -0.26226   0.76025   0.05533
  12   31634.0    316.1   0.037424752   0.38948   0.46134   0.35006   0.23259
  13   31824.8    314.2   0.005978086   0.06184  -0.02409   0.21884   0.11561
  14   31997.8    312.5   0.097009672   0.99809  -0.98728  -0.01343  -0.15230
  15   32364.1    309.0   0.011602281   0.11802  -0.29082  -0.11849   0.13929
  16   32709.6    305.7   0.019090076   0.19214  -0.06192   0.36030   0.24184
  17   33037.6    302.7   0.094552185   0.94219  -0.63385  -0.27006  -0.68374
  18   33412.5    299.3   0.008639050   0.08512  -0.05359   0.25193  -0.13704
  19   34199.5    292.4   0.391169786   3.76549  -1.54432  -0.32478  -1.12919
  20   34817.2    287.2   0.142970338   1.35185  -1.08189   0.00708  -0.42581
  21   35048.1    285.3   0.127061403   1.19351  -0.92518   0.30784   0.49274
  22   35642.0    280.6   0.408979687   3.77759   1.69297   0.62300   0.72341
  23   35675.1    280.3   0.017399572   0.16056  -0.29518  -0.12082  -0.24256
  24   36111.4    276.9   0.321897909   2.93461  -1.55945  -0.06453   0.70608
  25   36696.9    272.5   0.144827433   1.29926  -1.09467  -0.18608   0.25755
  26   36824.5    271.6   0.036349427   0.32496   0.26585  -0.47482  -0.16981
  27   36943.9    270.7   0.060755430   0.54140  -0.72436   0.01459  -0.12842
  28   37301.6    268.1   0.168059759   1.48324   0.31856  -1.03934  -0.54912
  29   37523.4    266.5   0.027801013   0.24391  -0.04047   0.27456   0.40853
  30   38294.6    261.1   0.010476152   0.09006   0.08765   0.17155  -0.23011
  31   38374.8    260.6   0.012368591   0.10611  -0.14315   0.01140   0.29238
  32   38761.9    258.0   0.178879246   1.51926   0.87626   0.67948   0.53827
  33   39811.4    251.2   0.015280979   0.12636  -0.25951  -0.22691   0.08679
  34   40128.3    249.2   0.028905408   0.23714   0.32112  -0.01872   0.36561

Dispersion correction           -0.064040909
FINAL SINGLE POINT ENERGY     -4575.559855635458

DIPOLE MOMENT
-------------
                                X             Y             Z
Electronic contribution:     29.91228      29.69998      16.81108
Nuclear contribution   :    -31.78910     -31.95393     -19.22694
                        -----------------------------------------
Total Dipole Moment    :     -1.87682      -2.25395      -2.41586
                        -----------------------------------------
Magnitude (a.u.)       :      3.79988
Magnitude (Debye)      :      9.65854

Rotational constants in cm-1:     0.002206     0.000361     0.000334
Rotational constants in MHz :    66.122428    10.827875    10.011301

                             ****ORCA TERMINATED NORMALLY****
TOTAL RUN TIME: 0 days 0 hours 12 minutes 33 seconds 957 msec
