                         Program Version 4.2.0 -  RELEASE  -
|  1> # ORCA input file
|  2> # SCF done       -183.509247066284          0.000532966665
|  3> ! wb97x-d3 def2-SVP def2/J RIJCOSX Grid4 TightSCF
|  4> %maxcore 5000
|  5> %tddft
|  6>     Mode sTDDFT
|  7>     Ethresh 5.0
|  8>     maxcore 5000
|  9> end
| 10>
| 11> %pal
| 12>   nprocs 6
| 13>   end
| 14> * xyz 0 1
| 15>    C        4.97119        -1.66014         2.70665
| 16>    S        4.25225        -2.55215         3.97228
| 17>    C        4.51134        -4.04002         3.06912
| 18>    C        5.18085        -3.79528         1.85754
| 19>    C        5.40492        -2.45634         1.63865
| 20>    C        4.01432        -5.30625         3.39197
| 21>    C        3.11897        -5.69063         4.36307
| 22>    C        2.48934        -4.80637         5.34807
| 23>    C        1.41768        -5.59914         5.98113
| 24>    C        1.43962        -6.90556         5.46274
| 25>    C        2.52762        -7.00623         4.48656
| 26>    C        0.48468        -5.19799         6.91763
| 27>    C       -0.45866        -6.11883         7.34617
| 28>    C       -0.43075        -7.40339         6.82510
| 29>    C        0.50133        -7.83055         5.88816
| 30>    O        2.77514        -3.65013         5.60521
| 31>    C        2.89697        -8.15479         3.83540
| 32>    C        3.96047        -8.27223         2.91639
| 33>    C        2.26281        -9.40272         4.01139
| 34>    N        1.79163       -10.44532         4.10430
| 35>    N        4.80769        -8.45389         2.16196
| 36>    F       -1.35729        -8.28106         7.24384
| 37>    C        5.03736        -0.28201         2.34764
| 38>    C        5.48094        -0.21577         1.00652
| 39>    C        5.87103        -1.58681         0.51344
| 40>    C        4.62384         0.85675         3.03937
| 41>    C        4.50177         2.02197         2.32362
| 42>    C        4.86236         2.07364         0.94923
| 43>    C        5.41675         0.96521         0.30568
| 44>    C        3.90363         3.34289         2.77112
| 45>    C        3.90013         4.08623         1.46376
| 46>    C        4.44682         3.35157         0.45083
| 47>    C        4.76608         4.02351         3.84593
| 48>    C        2.42739         3.20351         3.21438
| 49>    C        2.15720         2.43054         4.49921
| 50>    C        6.15521         4.38224         3.33107
| 51>    C        3.22436         5.22982         0.93206
| 52>    C        3.31274         5.14403        -0.48368
| 53>    C        4.26381         4.02412        -0.88528
| 54>    C        5.58335         4.68161        -1.34623
| 55>    C        3.65252         3.04411        -1.90747
| 56>    C        6.73953         3.70538        -1.51841
| 57>    C        3.74098         3.44102        -3.37738
| 58>    C        2.45829         6.21379         1.55806
| 59>    C        1.65244         6.99277         0.76202
| 60>    C        1.63164         6.80209        -0.63960
| 61>    C        2.52166         5.93597        -1.27716
| 62>    C        0.60246         7.99464         1.17215
| 63>    C       -0.15366         8.17862        -0.10602
| 64>    C        0.50205         7.50836        -1.14712
| 65>    C       -1.35574         8.71575        -0.50217
| 66>    C       -1.67017         8.40978        -1.83781
| 67>    S       -0.37176         7.51036        -2.61393
| 68>    C       -2.93208         8.68034        -2.37511
| 69>    C       -3.52271         8.22864        -3.53259
| 70>    C       -2.89450         7.36241        -4.53418
| 71>    C       -3.97730         6.93698        -5.44205
| 72>    C       -5.17742         7.55809        -5.05495
| 73>    C       -4.91273         8.41096        -3.89323
| 74>    C       -3.91726         6.05719        -6.50541
| 75>    C       -5.08451         5.78009        -7.19977
| 76>    C       -6.26355         6.39473        -6.80685
| 77>    C       -6.34631         7.28704        -5.74575
| 78>    O       -1.72075         7.04587        -4.61760
| 79>    C       -5.83645         9.22258        -3.28674
| 80>    C       -5.59120        10.06660        -2.18368
| 81>    C       -7.18093         9.33703        -3.69883
| 82>    N       -8.28598         9.47517        -3.97741
| 83>    N       -5.47675        10.77988        -1.29030
| 84>    F       -7.38760         6.10886        -7.48434
| 85>    H        5.42375        -4.59030         1.17470
| 86>    H        4.32883        -6.07411         2.69494
| 87>    H        0.49539        -4.18736         7.29481
| 88>    H       -1.21398        -5.85803         8.07039
| 89>    H        0.46068        -8.84347         5.52375
| 90>    H        6.95149        -1.65922         0.36454
| 91>    H        5.38862        -1.83918        -0.43234
| 92>    H        4.36883         0.78425         4.08377
| 93>    H        5.74127         1.01426        -0.72212
| 94>    H        4.25869         4.92954         4.18366
| 95>    H        4.86615         3.35065         4.69851
| 96>    H        2.03056         4.21314         3.33195
| 97>    H        1.87765         2.73157         2.39571
| 98>    H        2.75354         2.80867         5.32491
| 99>    H        1.10781         2.54444         4.76386
|100>    H        2.35156         1.37003         4.37519
|101>    H        6.09056         5.09198         2.50926
|102>    H        6.74564         4.83026         4.12691
|103>    H        6.67310         3.49342         2.97710
|104>    H        5.40056         5.21419        -2.27998
|105>    H        5.86229         5.42542        -0.59503
|106>    H        4.14029         2.07642        -1.78831
|107>    H        2.60198         2.90743        -1.63795
|108>    H        6.50524         2.93856        -2.25181
|109>    H        7.62227         4.24168        -1.86044
|110>    H        6.97885         3.22408        -0.57352
|111>    H        4.77209         3.48709        -3.71671
|112>    H        3.22457         2.69325        -3.97607
|113>    H        3.27262         4.40061        -3.57026
|114>    H        2.45468         6.32188         2.63218
|115>    H        2.51172         5.86472        -2.35211
|116>    H       -0.03118         7.62426         1.97962
|117>    H        1.06027         8.92780         1.51056
|118>    H       -2.03459         9.26313         0.12781
|119>    H       -3.55756         9.26506        -1.71093
|120>    H       -2.97972         5.59712        -6.77574
|121>    H       -5.09681         5.09604        -8.03337
|122>    H       -7.29807         7.72438        -5.49412
|123> *
|124>
|125>                          ****END OF INPUT****

CARTESIAN COORDINATES (ANGSTROEM)
---------------------------------
  C      4.971190   -1.660140    2.706650
  S      4.252250   -2.552150    3.972280
  C      4.511340   -4.040020    3.069120
  C      5.180850   -3.795280    1.857540
  C      5.404920   -2.456340    1.638650
  C      4.014320   -5.306250    3.391970
  C      3.118970   -5.690630    4.363070
  C      2.489340   -4.806370    5.348070
  C      1.417680   -5.599140    5.981130
  C      1.439620   -6.905560    5.462740
  C      2.527620   -7.006230    4.486560
  C      0.484680   -5.197990    6.917630
  C     -0.458660   -6.118830    7.346170
  C     -0.430750   -7.403390    6.825100
  C      0.501330   -7.830550    5.888160
  O      2.775140   -3.650130    5.605210
  C      2.896970   -8.154790    3.835400
  C      3.960470   -8.272230    2.916390
  C      2.262810   -9.402720    4.011390
  N      1.791630  -10.445320    4.104300
  N      4.807690   -8.453890    2.161960
  F     -1.357290   -8.281060    7.243840
  C      5.037360   -0.282010    2.347640
  C      5.480940   -0.215770    1.006520
  C      5.871030   -1.586810    0.513440
  C      4.623840    0.856750    3.039370
  C      4.501770    2.021970    2.323620
  C      4.862360    2.073640    0.949230
  C      5.416750    0.965210    0.305680
  C      3.903630    3.342890    2.771120
  C      3.900130    4.086230    1.463760
  C      4.446820    3.351570    0.450830
  C      4.766080    4.023510    3.845930
  C      2.427390    3.203510    3.214380
  C      2.157200    2.430540    4.499210
  C      6.155210    4.382240    3.331070
  C      3.224360    5.229820    0.932060
  C      3.312740    5.144030   -0.483680
  C      4.263810    4.024120   -0.885280
  C      5.583350    4.681610   -1.346230
  C      3.652520    3.044110   -1.907470
  C      6.739530    3.705380   -1.518410
  C      3.740980    3.441020   -3.377380
  C      2.458290    6.213790    1.558060
  C      1.652440    6.992770    0.762020
  C      1.631640    6.802090   -0.639600
  C      2.521660    5.935970   -1.277160
  C      0.602460    7.994640    1.172150
  C     -0.153660    8.178620   -0.106020
  C      0.502050    7.508360   -1.147120
  C     -1.355740    8.715750   -0.502170
  C     -1.670170    8.409780   -1.837810
  S     -0.371760    7.510360   -2.613930
  C     -2.932080    8.680340   -2.375110
  C     -3.522710    8.228640   -3.532590
  C     -2.894500    7.362410   -4.534180
  C     -3.977300    6.936980   -5.442050
  C     -5.177420    7.558090   -5.054950
  C     -4.912730    8.410960   -3.893230
  C     -3.917260    6.057190   -6.505410
  C     -5.084510    5.780090   -7.199770
  C     -6.263550    6.394730   -6.806850
  C     -6.346310    7.287040   -5.745750
  O     -1.720750    7.045870   -4.617600
  C     -5.836450    9.222580   -3.286740
  C     -5.591200   10.066600   -2.183680
  C     -7.180930    9.337030   -3.698830
  N     -8.285980    9.475170   -3.977410
  N     -5.476750   10.779880   -1.290300
  F     -7.387600    6.108860   -7.484340
  H      5.423750   -4.590300    1.174700
  H      4.328830   -6.074110    2.694940
  H      0.495390   -4.187360    7.294810
  H     -1.213980   -5.858030    8.070390
  H      0.460680   -8.843470    5.523750
  H      6.951490   -1.659220    0.364540
  H      5.388620   -1.839180   -0.432340
  H      4.368830    0.784250    4.083770
  H      5.741270    1.014260   -0.722120
  H      4.258690    4.929540    4.183660
  H      4.866150    3.350650    4.698510
  H      2.030560    4.213140    3.331950
  H      1.877650    2.731570    2.395710
  H      2.753540    2.808670    5.324910
  H      1.107810    2.544440    4.763860
  H      2.351560    1.370030    4.375190
  H      6.090560    5.091980    2.509260
  H      6.745640    4.830260    4.126910
  H      6.673100    3.493420    2.977100
  H      5.400560    5.214190   -2.279980
  H      5.862290    5.425420   -0.595030
  H      4.140290    2.076420   -1.788310
  H      2.601980    2.907430   -1.637950
  H      6.505240    2.938560   -2.251810
  H      7.622270    4.241680   -1.860440
  H      6.978850    3.224080   -0.573520
  H      4.772090    3.487090   -3.716710
  H      3.224570    2.693250   -3.976070
  H      3.272620    4.400610   -3.570260
  H      2.454680    6.321880    2.632180
  H      2.511720    5.864720   -2.352110
  H     -0.031180    7.624260    1.979620
  H      1.060270    8.927800    1.510560
  H     -2.034590    9.263130    0.127810
  H     -3.557560    9.265060   -1.710930
  H     -2.979720    5.597120   -6.775740
  H     -5.096810    5.096040   -8.033370
  H     -7.298070    7.724380   -5.494120

 Total Charge           Charge          ....    0
 Multiplicity           Mult            ....    1
 Number of Electrons    NEL             ....  492
 Basis Dimension        Dim             .... 1178

ORBITAL ENERGIES
----------------

  NO   OCC          E(Eh)            E(eV)
   0   2.0000     -88.991007     -2421.5684
   1   2.0000     -88.990927     -2421.5662
   2   2.0000     -24.820921      -675.4116
   3   2.0000     -24.820615      -675.4033
   4   2.0000     -19.253855      -523.9240
   5   2.0000     -19.253585      -523.9167
   6   2.0000     -14.450350      -393.2140
   7   2.0000     -14.450177      -393.2093
   8   2.0000     -14.445974      -393.0949
   9   2.0000     -14.445746      -393.0887
  10   2.0000     -10.409232      -283.2496
  11   2.0000     -10.408920      -283.2411
  12   2.0000     -10.400740      -283.0185
  13   2.0000     -10.400381      -283.0088
  14   2.0000     -10.377228      -282.3787
  15   2.0000     -10.376990      -282.3723
  16   2.0000     -10.373867      -282.2873
  17   2.0000     -10.373562      -282.2790
  18   2.0000     -10.356899      -281.8256
  19   2.0000     -10.356808      -281.8231
  20   2.0000     -10.351513      -281.6790
  21   2.0000     -10.351410      -281.6762
  22   2.0000     -10.347504      -281.5699
  23   2.0000     -10.347482      -281.5693
  24   2.0000     -10.347404      -281.5672
  25   2.0000     -10.347301      -281.5644
  26   2.0000     -10.346417      -281.5403
  27   2.0000     -10.346205      -281.5346
  28   2.0000     -10.341821      -281.4153
  29   2.0000     -10.341751      -281.4134
  30   2.0000     -10.335501      -281.2433
  31   2.0000     -10.335337      -281.2388
  32   2.0000     -10.331108      -281.1237
  33   2.0000     -10.330870      -281.1173
  34   2.0000     -10.330772      -281.1146
  35   2.0000     -10.330750      -281.1140
  36   2.0000     -10.330314      -281.1021
  37   2.0000     -10.330124      -281.0970
  38   2.0000     -10.327226      -281.0181
  39   2.0000     -10.325704      -280.9767
  40   2.0000     -10.325301      -280.9657
  41   2.0000     -10.325189      -280.9627
  42   2.0000     -10.324978      -280.9569
  43   2.0000     -10.324931      -280.9557
  44   2.0000     -10.324136      -280.9340
  45   2.0000     -10.323836      -280.9259
  46   2.0000     -10.323645      -280.9207
  47   2.0000     -10.323430      -280.9148
  48   2.0000     -10.322360      -280.8857
  49   2.0000     -10.322120      -280.8792
  50   2.0000     -10.322048      -280.8772
  51   2.0000     -10.320883      -280.8455
  52   2.0000     -10.317383      -280.7503
  53   2.0000     -10.317241      -280.7464
  54   2.0000     -10.316952      -280.7385
  55   2.0000     -10.316741      -280.7328
  56   2.0000     -10.315946      -280.7112
  57   2.0000     -10.315572      -280.7010
  58   2.0000     -10.315563      -280.7008
  59   2.0000     -10.314970      -280.6846
  60   2.0000     -10.307744      -280.4880
  61   2.0000     -10.307164      -280.4722
  62   2.0000     -10.307067      -280.4696
  63   2.0000     -10.306886      -280.4646
  64   2.0000     -10.305995      -280.4404
  65   2.0000     -10.305801      -280.4351
  66   2.0000     -10.295456      -280.1536
  67   2.0000     -10.294119      -280.1172
  68   2.0000     -10.291989      -280.0593
  69   2.0000     -10.288452      -279.9630
  70   2.0000      -8.102909      -220.4914
  71   2.0000      -8.102773      -220.4877
  72   2.0000      -6.062507      -164.9692
  73   2.0000      -6.062385      -164.9659
  74   2.0000      -6.057944      -164.8450
  75   2.0000      -6.057806      -164.8413
  76   2.0000      -6.055339      -164.7741
  77   2.0000      -6.055208      -164.7706
  78   2.0000      -1.343540       -36.5596
  79   2.0000      -1.343285       -36.5526
  80   2.0000      -1.171556       -31.8796
  81   2.0000      -1.171309       -31.8729
  82   2.0000      -1.056177       -28.7401
  83   2.0000      -1.055944       -28.7337
  84   2.0000      -1.052034       -28.6273
  85   2.0000      -1.048844       -28.5405
  86   2.0000      -1.038890       -28.2696
  87   2.0000      -1.036356       -28.2007
  88   2.0000      -1.036116       -28.1942
  89   2.0000      -1.028918       -27.9983
  90   2.0000      -1.028691       -27.9921
  91   2.0000      -1.009265       -27.4635
  92   2.0000      -0.995424       -27.0869
  93   2.0000      -0.989622       -26.9290
  94   2.0000      -0.984745       -26.7963
  95   2.0000      -0.974534       -26.5184
  96   2.0000      -0.947664       -25.7872
  97   2.0000      -0.941487       -25.6192
  98   2.0000      -0.936531       -25.4843
  99   2.0000      -0.931907       -25.3585
 100   2.0000      -0.919139       -25.0110
 101   2.0000      -0.916361       -24.9355
 102   2.0000      -0.915284       -24.9061
 103   2.0000      -0.905638       -24.6437
 104   2.0000      -0.903691       -24.5907
 105   2.0000      -0.902203       -24.5502
 106   2.0000      -0.885751       -24.1025
 107   2.0000      -0.880868       -23.9696
 108   2.0000      -0.880008       -23.9462
 109   2.0000      -0.877536       -23.8790
 110   2.0000      -0.876175       -23.8419
 111   2.0000      -0.861209       -23.4347
 112   2.0000      -0.842875       -22.9358
 113   2.0000      -0.838935       -22.8286
 114   2.0000      -0.822030       -22.3686
 115   2.0000      -0.820008       -22.3135
 116   2.0000      -0.807164       -21.9640
 117   2.0000      -0.806209       -21.9381
 118   2.0000      -0.803099       -21.8534
 119   2.0000      -0.794130       -21.6094
 120   2.0000      -0.786907       -21.4128
 121   2.0000      -0.773924       -21.0595
 122   2.0000      -0.753837       -20.5129
 123   2.0000      -0.751117       -20.4389
 124   2.0000      -0.741077       -20.1657
 125   2.0000      -0.737819       -20.0771
 126   2.0000      -0.734520       -19.9873
 127   2.0000      -0.730423       -19.8758
 128   2.0000      -0.729023       -19.8377
 129   2.0000      -0.723059       -19.6754
 130   2.0000      -0.720377       -19.6025
 131   2.0000      -0.713524       -19.4160
 132   2.0000      -0.702405       -19.1134
 133   2.0000      -0.697881       -18.9903
 134   2.0000      -0.689293       -18.7566
 135   2.0000      -0.688050       -18.7228
 136   2.0000      -0.676188       -18.4000
 137   2.0000      -0.669337       -18.2136
 138   2.0000      -0.665969       -18.1219
 139   2.0000      -0.665871       -18.1193
 140   2.0000      -0.665369       -18.1056
 141   2.0000      -0.662948       -18.0397
 142   2.0000      -0.650469       -17.7002
 143   2.0000      -0.649034       -17.6611
 144   2.0000      -0.635370       -17.2893
 145   2.0000      -0.634609       -17.2686
 146   2.0000      -0.627400       -17.0724
 147   2.0000      -0.624283       -16.9876
 148   2.0000      -0.615880       -16.7589
 149   2.0000      -0.612207       -16.6590
 150   2.0000      -0.603276       -16.4160
 151   2.0000      -0.599079       -16.3018
 152   2.0000      -0.596824       -16.2404
 153   2.0000      -0.596688       -16.2367
 154   2.0000      -0.595029       -16.1916
 155   2.0000      -0.591517       -16.0960
 156   2.0000      -0.589118       -16.0307
 157   2.0000      -0.585659       -15.9366
 158   2.0000      -0.583758       -15.8849
 159   2.0000      -0.583357       -15.8739
 160   2.0000      -0.579803       -15.7772
 161   2.0000      -0.575409       -15.6577
 162   2.0000      -0.572868       -15.5885
 163   2.0000      -0.572454       -15.5773
 164   2.0000      -0.570704       -15.5297
 165   2.0000      -0.570530       -15.5249
 166   2.0000      -0.568236       -15.4625
 167   2.0000      -0.565565       -15.3898
 168   2.0000      -0.564547       -15.3621
 169   2.0000      -0.562612       -15.3094
 170   2.0000      -0.562190       -15.2980
 171   2.0000      -0.556048       -15.1308
 172   2.0000      -0.552288       -15.0285
 173   2.0000      -0.547731       -14.9045
 174   2.0000      -0.541185       -14.7264
 175   2.0000      -0.539706       -14.6861
 176   2.0000      -0.534335       -14.5400
 177   2.0000      -0.531275       -14.4567
 178   2.0000      -0.531135       -14.4529
 179   2.0000      -0.528516       -14.3817
 180   2.0000      -0.526557       -14.3283
 181   2.0000      -0.525057       -14.2875
 182   2.0000      -0.523070       -14.2335
 183   2.0000      -0.521179       -14.1820
 184   2.0000      -0.520283       -14.1576
 185   2.0000      -0.520166       -14.1544
 186   2.0000      -0.517047       -14.0696
 187   2.0000      -0.512980       -13.9589
 188   2.0000      -0.511770       -13.9260
 189   2.0000      -0.511519       -13.9191
 190   2.0000      -0.504621       -13.7314
 191   2.0000      -0.497510       -13.5379
 192   2.0000      -0.495158       -13.4739
 193   2.0000      -0.494185       -13.4475
 194   2.0000      -0.489525       -13.3206
 195   2.0000      -0.488048       -13.2805
 196   2.0000      -0.487359       -13.2617
 197   2.0000      -0.486986       -13.2516
 198   2.0000      -0.485763       -13.2183
 199   2.0000      -0.484090       -13.1728
 200   2.0000      -0.482701       -13.1350
 201   2.0000      -0.482481       -13.1290
 202   2.0000      -0.480878       -13.0853
 203   2.0000      -0.480821       -13.0838
 204   2.0000      -0.477501       -12.9935
 205   2.0000      -0.474669       -12.9164
 206   2.0000      -0.474072       -12.9001
 207   2.0000      -0.473296       -12.8790
 208   2.0000      -0.470739       -12.8095
 209   2.0000      -0.470066       -12.7912
 210   2.0000      -0.466953       -12.7064
 211   2.0000      -0.460751       -12.5377
 212   2.0000      -0.460446       -12.5294
 213   2.0000      -0.459932       -12.5154
 214   2.0000      -0.459677       -12.5085
 215   2.0000      -0.459310       -12.4985
 216   2.0000      -0.455757       -12.4018
 217   2.0000      -0.452925       -12.3247
 218   2.0000      -0.451357       -12.2820
 219   2.0000      -0.443344       -12.0640
 220   2.0000      -0.443158       -12.0589
 221   2.0000      -0.441996       -12.0273
 222   2.0000      -0.439169       -11.9504
 223   2.0000      -0.436347       -11.8736
 224   2.0000      -0.435995       -11.8640
 225   2.0000      -0.432118       -11.7585
 226   2.0000      -0.424529       -11.5520
 227   2.0000      -0.420857       -11.4521
 228   2.0000      -0.418632       -11.3916
 229   2.0000      -0.416190       -11.3251
 230   2.0000      -0.415149       -11.2968
 231   2.0000      -0.396109       -10.7787
 232   2.0000      -0.381420       -10.3790
 233   2.0000      -0.372038       -10.1237
 234   2.0000      -0.369037       -10.0420
 235   2.0000      -0.368402       -10.0247
 236   2.0000      -0.366669        -9.9776
 237   2.0000      -0.361452        -9.8356
 238   2.0000      -0.361196        -9.8286
 239   2.0000      -0.352819        -9.6007
 240   2.0000      -0.352598        -9.5947
 241   2.0000      -0.348334        -9.4787
 242   2.0000      -0.346552        -9.4302
 243   2.0000      -0.325850        -8.8668
 244   2.0000      -0.295838        -8.0502
 245   2.0000      -0.264863        -7.2073
 246   0.0000      -0.072256        -1.9662
 247   0.0000      -0.063663        -1.7324
 248   0.0000      -0.036940        -1.0052
 249   0.0000      -0.032308        -0.8791
 250   0.0000      -0.004875        -0.1327

MULLIKEN ATOMIC CHARGES
-----------------------
   0 C :   -0.031018
   1 S :    0.209449
   2 C :   -0.102359
   3 C :   -0.031502
   4 C :   -0.132141
   5 C :    0.014714
   6 C :   -0.148633
   7 C :    0.225180
   8 C :   -0.064700
   9 C :    0.017619
  10 C :    0.280762
  11 C :   -0.012561
  12 C :   -0.069478
  13 C :    0.312057
  14 C :   -0.087037
  15 O :   -0.204763
  16 C :   -0.375032
  17 C :   -0.130492
  18 C :   -0.132638
  19 N :    0.108187
  20 N :    0.099772
  21 F :   -0.197356
  22 C :    0.022953
  23 C :   -0.167215
  24 C :    0.321478
  25 C :   -0.085888
  26 C :    0.001506
  27 C :    0.083948
  28 C :   -0.099865
  29 C :   -0.249247
  30 C :    0.018465
  31 C :    0.021097
  32 C :    0.026437
  33 C :    0.031440
  34 C :   -0.014030
  35 C :   -0.021938
  36 C :    0.063660
  37 C :    0.020749
  38 C :   -0.229254
  39 C :    0.041310
  40 C :    0.017202
  41 C :   -0.017093
  42 C :   -0.006545
  43 C :   -0.098931
  44 C :   -0.163504
  45 C :    0.017248
  46 C :   -0.071884
  47 C :    0.318587
  48 C :   -0.132855
  49 C :   -0.030677
  50 C :   -0.034721
  51 C :   -0.098250
  52 S :    0.208271
  53 C :    0.009391
  54 C :   -0.149084
  55 C :    0.230809
  56 C :   -0.068913
  57 C :    0.020235
  58 C :    0.280237
  59 C :   -0.011897
  60 C :   -0.069145
  61 C :    0.311871
  62 C :   -0.089005
  63 O :   -0.205475
  64 C :   -0.371487
  65 C :   -0.131342
  66 C :   -0.132028
  67 N :    0.108703
  68 N :    0.096267
  69 F :   -0.197134
  70 H :    0.027992
  71 H :    0.031831
  72 H :    0.030449
  73 H :    0.038889
  74 H :    0.039483
  75 H :    0.064293
  76 H :    0.050633
  77 H :   -0.002925
  78 H :   -0.022493
  79 H :    0.022975
  80 H :    0.034309
  81 H :    0.009623
  82 H :    0.033081
  83 H :    0.025005
  84 H :    0.037734
  85 H :    0.039926
  86 H :    0.037648
  87 H :    0.034967
  88 H :    0.039315
  89 H :    0.023716
  90 H :    0.028995
  91 H :    0.014477
  92 H :    0.034912
  93 H :    0.024450
  94 H :    0.040735
  95 H :    0.040328
  96 H :    0.027650
  97 H :    0.039993
  98 H :    0.025864
  99 H :   -0.009772
 100 H :   -0.019705
 101 H :    0.049498
 102 H :    0.064095
 103 H :    0.028549
 104 H :    0.032452
 105 H :    0.029539
 106 H :    0.039664
 107 H :    0.039342
Sum of atomic charges:    0.0000000

LOEWDIN ATOMIC CHARGES
----------------------
   0 C :   -0.154290
   1 S :    0.503790
   2 C :   -0.194162
   3 C :   -0.006616
   4 C :   -0.069493
   5 C :    0.064836
   6 C :   -0.131550
   7 C :    0.090150
   8 C :   -0.061085
   9 C :   -0.006530
  10 C :    0.081172
  11 C :    0.023400
  12 C :   -0.036956
  13 C :    0.108766
  14 C :   -0.028360
  15 O :   -0.172882
  16 C :   -0.150085
  17 C :   -0.015454
  18 C :   -0.014673
  19 N :   -0.055658
  20 N :   -0.058251
  21 F :   -0.062603
  22 C :   -0.048500
  23 C :   -0.002887
  24 C :   -0.011387
  25 C :   -0.017151
  26 C :    0.006447
  27 C :   -0.009553
  28 C :   -0.036994
  29 C :   -0.039495
  30 C :   -0.002006
  31 C :   -0.007805
  32 C :   -0.016295
  33 C :   -0.013960
  34 C :   -0.061518
  35 C :   -0.058163
  36 C :   -0.010514
  37 C :    0.012084
  38 C :   -0.036979
  39 C :   -0.012407
  40 C :   -0.022320
  41 C :   -0.060397
  42 C :   -0.057978
  43 C :   -0.034683
  44 C :   -0.003547
  45 C :   -0.047561
  46 C :   -0.018937
  47 C :   -0.011184
  48 C :   -0.069598
  49 C :   -0.153935
  50 C :   -0.006610
  51 C :   -0.193949
  52 S :    0.503784
  53 C :    0.064810
  54 C :   -0.132099
  55 C :    0.090286
  56 C :   -0.061167
  57 C :   -0.006460
  58 C :    0.081195
  59 C :    0.023418
  60 C :   -0.037141
  61 C :    0.108563
  62 C :   -0.028377
  63 O :   -0.173286
  64 C :   -0.150343
  65 C :   -0.015279
  66 C :   -0.014698
  67 N :   -0.055873
  68 N :   -0.058673
  69 F :   -0.062598
  70 H :    0.041555
  71 H :    0.052043
  72 H :    0.045320
  73 H :    0.046256
  74 H :    0.050624
  75 H :    0.056396
  76 H :    0.048192
  77 H :    0.031121
  78 H :    0.026903
  79 H :    0.022553
  80 H :    0.023837
  81 H :    0.021100
  82 H :    0.030877
  83 H :    0.023253
  84 H :    0.032103
  85 H :    0.024994
  86 H :    0.024949
  87 H :    0.027849
  88 H :    0.027608
  89 H :    0.022785
  90 H :    0.030135
  91 H :    0.022575
  92 H :    0.032062
  93 H :    0.019262
  94 H :    0.032277
  95 H :    0.027443
  96 H :    0.023179
  97 H :    0.032828
  98 H :    0.020882
  99 H :    0.028096
 100 H :    0.029468
 101 H :    0.047723
 102 H :    0.056405
 103 H :    0.041579
 104 H :    0.052038
 105 H :    0.045096
 106 H :    0.046294
 107 H :    0.050593

  Mayer bond orders larger than 0.100000
B(  0-C ,  1-S ) :   1.1327 B(  0-C ,  4-C ) :   1.4342 B(  0-C , 22-C ) :   1.0954
B(  1-S ,  2-C ) :   1.0764 B(  2-C ,  3-C ) :   1.3284 B(  2-C ,  5-C ) :   1.3102
B(  3-C ,  4-C ) :   1.3867 B(  3-C , 70-H ) :   1.0114 B(  4-C , 24-C ) :   1.0068
B(  5-C ,  6-C ) :   1.5074 B(  5-C , 71-H ) :   0.9417 B(  6-C ,  7-C ) :   0.9833
B(  6-C , 10-C ) :   1.1049 B(  7-C ,  8-C ) :   0.9693 B(  7-C , 15-O ) :   2.1222
B(  8-C ,  9-C ) :   1.3335 B(  8-C , 11-C ) :   1.3971 B(  9-C , 10-C ) :   1.0051
B(  9-C , 14-C ) :   1.3577 B( 10-C , 16-C ) :   1.6360 B( 11-C , 12-C ) :   1.3367
B( 11-C , 72-H ) :   1.0036 B( 12-C , 13-C ) :   1.3759 B( 12-C , 73-H ) :   0.9920
B( 13-C , 14-C ) :   1.3353 B( 13-C , 21-F ) :   1.0728 B( 14-C , 74-H ) :   0.9877
B( 16-C , 17-C ) :   1.1327 B( 16-C , 18-C ) :   1.1304 B( 17-C , 20-N ) :   2.9632
B( 18-C , 19-N ) :   2.9756 B( 22-C , 23-C ) :   1.3695 B( 22-C , 25-C ) :   1.3098
B( 23-C , 24-C ) :   0.9917 B( 23-C , 28-C ) :   1.4265 B( 24-C , 75-H ) :   0.8762
B( 24-C , 76-H ) :   0.9088 B( 25-C , 26-C ) :   1.4507 B( 25-C , 77-H ) :   0.9979
B( 26-C , 27-C ) :   1.3390 B( 26-C , 29-C ) :   0.9190 B( 27-C , 28-C ) :   1.3132
B( 27-C , 31-C ) :   1.0732 B( 28-C , 78-H ) :   0.9961 B( 29-C , 30-C ) :   0.9552
B( 29-C , 32-C ) :   1.0074 B( 29-C , 33-C ) :   1.0204 B( 30-C , 31-C ) :   1.7383
B( 30-C , 36-C ) :   1.0680 B( 31-C , 38-C ) :   0.9364 B( 32-C , 35-C ) :   1.0934
B( 32-C , 79-H ) :   0.9496 B( 32-C , 80-H ) :   0.9457 B( 33-C , 34-C ) :   1.1031
B( 33-C , 81-H ) :   0.9386 B( 33-C , 82-H ) :   0.9474 B( 34-C , 83-H ) :   0.9667
B( 34-C , 84-H ) :   0.9649 B( 34-C , 85-H ) :   0.9640 B( 35-C , 86-H ) :   0.9634
B( 35-C , 87-H ) :   0.9693 B( 35-C , 88-H ) :   0.9696 B( 36-C , 37-C ) :   1.3377
B( 36-C , 43-C ) :   1.3238 B( 37-C , 38-C ) :   0.9405 B( 37-C , 46-C ) :   1.4533
B( 38-C , 39-C ) :   0.9962 B( 38-C , 40-C ) :   1.0082 B( 39-C , 41-C ) :   1.0995
B( 39-C , 89-H ) :   0.9419 B( 39-C , 90-H ) :   0.9412 B( 40-C , 42-C ) :   1.1007
B( 40-C , 91-H ) :   0.9439 B( 40-C , 92-H ) :   0.9469 B( 41-C , 93-H ) :   0.9629
B( 41-C , 94-H ) :   0.9663 B( 41-C , 95-H ) :   0.9632 B( 42-C , 96-H ) :   0.9583
B( 42-C , 97-H ) :   0.9644 B( 42-C , 98-H ) :   0.9705 B( 43-C , 44-C ) :   1.4246
B( 43-C , 99-H ) :   0.9986 B( 44-C , 45-C ) :   1.3679 B( 44-C , 47-C ) :   0.9910
B( 45-C , 46-C ) :   1.3201 B( 45-C , 49-C ) :   1.0962 B( 46-C ,100-H ) :   1.0013
B( 47-C , 48-C ) :   1.0082 B( 47-C ,101-H ) :   0.9105 B( 47-C ,102-H ) :   0.8765
B( 48-C , 49-C ) :   1.4304 B( 48-C , 50-C ) :   1.3884 B( 49-C , 52-S ) :   1.1337
B( 50-C , 51-C ) :   1.3266 B( 50-C ,103-H ) :   1.0118 B( 51-C , 52-S ) :   1.0760
B( 51-C , 53-C ) :   1.3113 B( 53-C , 54-C ) :   1.5062 B( 53-C ,104-H ) :   0.9415
B( 54-C , 55-C ) :   0.9822 B( 54-C , 58-C ) :   1.1077 B( 55-C , 56-C ) :   0.9692
B( 55-C , 63-O ) :   2.1204 B( 56-C , 57-C ) :   1.3349 B( 56-C , 59-C ) :   1.3971
B( 57-C , 58-C ) :   1.0046 B( 57-C , 62-C ) :   1.3563 B( 58-C , 64-C ) :   1.6335
B( 59-C , 60-C ) :   1.3375 B( 59-C ,105-H ) :   1.0040 B( 60-C , 61-C ) :   1.3743
B( 60-C ,106-H ) :   0.9919 B( 61-C , 62-C ) :   1.3358 B( 61-C , 69-F ) :   1.0735
B( 62-C ,107-H ) :   0.9886 B( 64-C , 65-C ) :   1.1330 B( 64-C , 66-C ) :   1.1297
B( 65-C , 68-N ) :   2.9607 B( 66-C , 67-N ) :   2.9753

-----------------------------------------------------------------------------
         ABSORPTION SPECTRUM VIA TRANSITION ELECTRIC DIPOLE MOMENTS
-----------------------------------------------------------------------------
State   Energy  Wavelength   fosc         T2         TX        TY        TZ
        (cm-1)    (nm)                  (au**2)     (au)      (au)      (au)
-----------------------------------------------------------------------------
   0   19230.6    520.0   2.380481677  40.75184   2.61403  -5.21162   2.59955
   1   24754.5    404.0   1.212582770  16.12620  -3.44336  -2.02477  -0.41201
   2   29007.2    344.7   0.023341573   0.26491   0.09567  -0.20028   0.46438
   3   29887.4    334.6   0.166280845   1.83160  -1.14330  -0.70386  -0.17040
   4   32775.5    305.1   0.025186045   0.25298  -0.29730   0.33600  -0.22737
   5   32991.0    303.1   0.006719466   0.06705   0.18874   0.17534   0.02612
   6   35430.5    282.2   0.103212557   0.95903   0.35442  -0.58942  -0.69714
   7   36726.3    272.3   0.156478968   1.40267   0.42720  -0.81364  -0.74710
   8   36915.7    270.9   0.049119563   0.43805  -0.48451  -0.37714  -0.24710
   9   38282.3    261.2   0.922154633   7.93016  -1.13080   1.20687   2.27924

Dispersion correction           -0.066812069
FINAL SINGLE POINT ENERGY     -3671.562192362718

DIPOLE MOMENT
-------------
                                X             Y             Z
Electronic contribution:    -70.88853     -35.61031      -6.20677
Nuclear contribution   :     73.56435      37.10093       6.48000
                        -----------------------------------------
Total Dipole Moment    :      2.67582       1.49062       0.27324
                        -----------------------------------------
Magnitude (a.u.)       :      3.07516
Magnitude (Debye)      :      7.81644

Rotational constants in cm-1:     0.001211     0.000313     0.000281
Rotational constants in MHz :    36.310477     9.393647     8.415430

                             ****ORCA TERMINATED NORMALLY****
TOTAL RUN TIME: 0 days 0 hours 10 minutes 36 seconds 504 msec
