                         Program Version 4.2.0 -  RELEASE  -
|  1> # ORCA input file
|  2> # SCF done       -201.750048278286          0.000301501678
|  3> ! CAM-B3LYP def2-SVP def2/J RIJCOSX Grid4 TightSCF
|  4> %maxcore 5000
|  5> %tddft
|  6>     Mode sTDDFT
|  7>     Ethresh 5.0
|  8>     maxcore 5000
|  9> end
| 10>
| 11> %pal
| 12>   nprocs 6
| 13>   end
| 14> * xyz 0 1
| 15>    C        1.15150         0.45168         0.29557
| 16>    C        1.42183        -0.93650         0.20263
| 17>    C        0.43394        -1.89978         0.04161
| 18>    C       -0.89670        -1.43443         0.02315
| 19>    C       -1.16638        -0.04600         0.10219
| 20>    C       -0.17582         0.92243         0.22070
| 21>    C       -2.08385        -2.19920        -0.06435
| 22>    C       -3.22230        -1.44569        -0.10002
| 23>    S       -2.87795         0.27071        -0.00491
| 24>    C        2.33330         1.20706         0.47493
| 25>    C        3.47337         0.45262         0.48275
| 26>    S        3.13332        -1.25226         0.27664
| 27>    C       -0.50631         2.33270         0.24436
| 28>    C        0.73836        -3.30646        -0.12160
| 29>    C       -4.56600        -1.89715        -0.19813
| 30>    C        4.80954         0.91243         0.64814
| 31>    C        5.23983         2.19954         0.91032
| 32>    C        6.61927         2.30822         1.03158
| 33>    C        7.29089         1.10814         0.85607
| 34>    S        6.15161        -0.17699         0.54240
| 35>    S       -4.93750        -3.59155        -0.22561
| 36>    C       -6.64873        -3.26671        -0.37276
| 37>    C       -6.87444        -1.89999        -0.39940
| 38>    C       -5.71503        -1.13986        -0.29728
| 39>    C       -1.56171         2.94251         0.86297
| 40>    C       -1.61364         4.33251         0.64089
| 41>    C       -0.61501         4.79294        -0.16055
| 42>    S        0.43178         3.50117        -0.64700
| 43>    C        0.17867        -4.19586        -0.99588
| 44>    C        0.72180        -5.49188        -0.89590
| 45>    C        1.68692        -5.60266         0.05723
| 46>    S        1.95717        -4.08486         0.84816
| 47>    C       -0.33229         6.19212        -0.58633
| 48>    C        0.89890         6.75350         0.12816
| 49>    C        2.49625        -6.79690         0.42803
| 50>    C        3.95493        -6.63336        -0.00317
| 51>    C        8.69818         0.95752         0.94755
| 52>    C        9.60043         1.95156         1.32164
| 53>    C       10.91197         1.39636         1.33182
| 54>    C       10.80513         0.01702         0.93533
| 55>    N        9.42861        -0.18733         0.72226
| 56>    C        9.70527         3.32639         1.72879
| 57>    N       11.07886         3.52174         1.97486
| 58>    C       11.80926         2.38033         1.73866
| 59>    C       13.21261         2.20813         1.90082
| 60>    C       13.89300         1.03570         1.64006
| 61>    C       15.26881         1.12392         1.89035
| 62>    C       15.64662         2.35287         2.34069
| 63>    S       14.32466         3.43135         2.46930
| 64>    C        8.96810        -1.46049         0.22575
| 65>    C        8.73251        -1.43112        -1.28208
| 66>    O       11.63100        -0.86595         0.78768
| 67>    O        8.88087         4.21247         1.86985
| 68>    C       11.54801         4.83154         2.35391
| 69>    C       12.08806         5.61216         1.15855
| 70>    C       -7.66547        -4.25029        -0.47903
| 71>    C       -9.01411        -4.00146        -0.72583
| 72>    C       -9.70070        -5.24678        -0.80478
| 73>    C       -8.73672        -6.29165        -0.58268
| 74>    N       -7.51525        -5.61640        -0.39660
| 75>    C       -9.97494        -2.95770        -0.96068
| 76>    N      -11.19045        -3.63526        -1.18213
| 77>    C      -11.04128        -4.99930        -1.08914
| 78>    C      -12.04689        -5.98890        -1.27560
| 79>    C      -11.83941        -7.34864        -1.15807
| 80>    C      -12.98995        -8.10974        -1.40328
| 81>    C      -14.07526        -7.34452        -1.70747
| 82>    S      -13.71255        -5.67265        -1.70201
| 83>    C       -6.33218        -6.37019        -0.06316
| 84>    C       -6.04560        -6.34689         1.43592
| 85>    O       -8.82819        -7.50565        -0.54560
| 86>    O       -9.88558        -1.74318        -0.99093
| 87>    C      -12.39548        -2.87174        -1.39280
| 88>    C      -13.21045        -2.72772        -0.11028
| 89>    H       -2.10243        -3.27405        -0.08099
| 90>    H        2.34279         2.27264         0.60340
| 91>    H        4.56691         3.03041         1.01512
| 92>    H        7.13317         3.22801         1.24775
| 93>    H       -7.86064        -1.48229        -0.49712
| 94>    H       -5.69541        -0.06452        -0.29849
| 95>    H       -2.26019         2.41946         1.49070
| 96>    H       -2.37220         4.96934         1.06037
| 97>    H       -0.56653        -3.91941        -1.72041
| 98>    H        0.40472        -6.31467        -1.51222
| 99>    H       -1.20374         6.80971        -0.35926
|100>    H       -0.16309         6.22165        -1.66574
|101>    H        0.74840         6.74497         1.20541
|102>    H        1.08516         7.77630        -0.18916
|103>    H        1.77555         6.15285        -0.10398
|104>    H        2.06437        -7.67696        -0.05316
|105>    H        2.45838        -6.94538         1.51030
|106>    H        4.01812        -6.50107        -1.08090
|107>    H        4.53133        -7.51217         0.27451
|108>    H        4.39325        -5.76175         0.47766
|109>    H       13.40172         0.14855         1.28257
|110>    H       15.95501         0.30975         1.74243
|111>    H       16.62673         2.69457         2.60941
|112>    H        8.06370        -1.76513         0.75752
|113>    H        9.76812        -2.17137         0.45424
|114>    H        7.97571        -0.69623        -1.54530
|115>    H        8.40002        -2.40820        -1.62032
|116>    H        9.65752        -1.17853        -1.79504
|117>    H       12.30170         4.74546         3.13978
|118>    H       10.67365         5.35106         2.75828
|119>    H       12.92833         5.09569         0.70114
|120>    H       12.41800         6.59521         1.48177
|121>    H       11.30483         5.73271         0.41399
|122>    H      -10.88228        -7.76850        -0.90537
|123>    H      -13.01590        -9.18340        -1.35524
|124>    H      -15.07332        -7.66088        -1.93887
|125>    H       -5.47750        -5.99537        -0.63115
|126>    H       -6.54135        -7.39768        -0.37640
|127>    H       -5.88054        -5.33108         1.78662
|128>    H       -5.15866        -6.93653         1.64921
|129>    H       -6.88696        -6.77113         1.97861
|130>    H      -12.99124        -3.32554        -2.18790
|131>    H      -12.06268        -1.88237        -1.72171
|132>    H      -13.50543        -3.69987         0.27702
|133>    H      -14.10589        -2.14597        -0.30879
|134>    H      -12.61987        -2.21531         0.64535
|135> *
|136>
|137>                          ****END OF INPUT****

CARTESIAN COORDINATES (ANGSTROEM)
---------------------------------
  C      1.151500    0.451680    0.295570
  C      1.421830   -0.936500    0.202630
  C      0.433940   -1.899780    0.041610
  C     -0.896700   -1.434430    0.023150
  C     -1.166380   -0.046000    0.102190
  C     -0.175820    0.922430    0.220700
  C     -2.083850   -2.199200   -0.064350
  C     -3.222300   -1.445690   -0.100020
  S     -2.877950    0.270710   -0.004910
  C      2.333300    1.207060    0.474930
  C      3.473370    0.452620    0.482750
  S      3.133320   -1.252260    0.276640
  C     -0.506310    2.332700    0.244360
  C      0.738360   -3.306460   -0.121600
  C     -4.566000   -1.897150   -0.198130
  C      4.809540    0.912430    0.648140
  C      5.239830    2.199540    0.910320
  C      6.619270    2.308220    1.031580
  C      7.290890    1.108140    0.856070
  S      6.151610   -0.176990    0.542400
  S     -4.937500   -3.591550   -0.225610
  C     -6.648730   -3.266710   -0.372760
  C     -6.874440   -1.899990   -0.399400
  C     -5.715030   -1.139860   -0.297280
  C     -1.561710    2.942510    0.862970
  C     -1.613640    4.332510    0.640890
  C     -0.615010    4.792940   -0.160550
  S      0.431780    3.501170   -0.647000
  C      0.178670   -4.195860   -0.995880
  C      0.721800   -5.491880   -0.895900
  C      1.686920   -5.602660    0.057230
  S      1.957170   -4.084860    0.848160
  C     -0.332290    6.192120   -0.586330
  C      0.898900    6.753500    0.128160
  C      2.496250   -6.796900    0.428030
  C      3.954930   -6.633360   -0.003170
  C      8.698180    0.957520    0.947550
  C      9.600430    1.951560    1.321640
  C     10.911970    1.396360    1.331820
  C     10.805130    0.017020    0.935330
  N      9.428610   -0.187330    0.722260
  C      9.705270    3.326390    1.728790
  N     11.078860    3.521740    1.974860
  C     11.809260    2.380330    1.738660
  C     13.212610    2.208130    1.900820
  C     13.893000    1.035700    1.640060
  C     15.268810    1.123920    1.890350
  C     15.646620    2.352870    2.340690
  S     14.324660    3.431350    2.469300
  C      8.968100   -1.460490    0.225750
  C      8.732510   -1.431120   -1.282080
  O     11.631000   -0.865950    0.787680
  O      8.880870    4.212470    1.869850
  C     11.548010    4.831540    2.353910
  C     12.088060    5.612160    1.158550
  C     -7.665470   -4.250290   -0.479030
  C     -9.014110   -4.001460   -0.725830
  C     -9.700700   -5.246780   -0.804780
  C     -8.736720   -6.291650   -0.582680
  N     -7.515250   -5.616400   -0.396600
  C     -9.974940   -2.957700   -0.960680
  N    -11.190450   -3.635260   -1.182130
  C    -11.041280   -4.999300   -1.089140
  C    -12.046890   -5.988900   -1.275600
  C    -11.839410   -7.348640   -1.158070
  C    -12.989950   -8.109740   -1.403280
  C    -14.075260   -7.344520   -1.707470
  S    -13.712550   -5.672650   -1.702010
  C     -6.332180   -6.370190   -0.063160
  C     -6.045600   -6.346890    1.435920
  O     -8.828190   -7.505650   -0.545600
  O     -9.885580   -1.743180   -0.990930
  C    -12.395480   -2.871740   -1.392800
  C    -13.210450   -2.727720   -0.110280
  H     -2.102430   -3.274050   -0.080990
  H      2.342790    2.272640    0.603400
  H      4.566910    3.030410    1.015120
  H      7.133170    3.228010    1.247750
  H     -7.860640   -1.482290   -0.497120
  H     -5.695410   -0.064520   -0.298490
  H     -2.260190    2.419460    1.490700
  H     -2.372200    4.969340    1.060370
  H     -0.566530   -3.919410   -1.720410
  H      0.404720   -6.314670   -1.512220
  H     -1.203740    6.809710   -0.359260
  H     -0.163090    6.221650   -1.665740
  H      0.748400    6.744970    1.205410
  H      1.085160    7.776300   -0.189160
  H      1.775550    6.152850   -0.103980
  H      2.064370   -7.676960   -0.053160
  H      2.458380   -6.945380    1.510300
  H      4.018120   -6.501070   -1.080900
  H      4.531330   -7.512170    0.274510
  H      4.393250   -5.761750    0.477660
  H     13.401720    0.148550    1.282570
  H     15.955010    0.309750    1.742430
  H     16.626730    2.694570    2.609410
  H      8.063700   -1.765130    0.757520
  H      9.768120   -2.171370    0.454240
  H      7.975710   -0.696230   -1.545300
  H      8.400020   -2.408200   -1.620320
  H      9.657520   -1.178530   -1.795040
  H     12.301700    4.745460    3.139780
  H     10.673650    5.351060    2.758280
  H     12.928330    5.095690    0.701140
  H     12.418000    6.595210    1.481770
  H     11.304830    5.732710    0.413990
  H    -10.882280   -7.768500   -0.905370
  H    -13.015900   -9.183400   -1.355240
  H    -15.073320   -7.660880   -1.938870
  H     -5.477500   -5.995370   -0.631150
  H     -6.541350   -7.397680   -0.376400
  H     -5.880540   -5.331080    1.786620
  H     -5.158660   -6.936530    1.649210
  H     -6.886960   -6.771130    1.978610
  H    -12.991240   -3.325540   -2.187900
  H    -12.062680   -1.882370   -1.721710
  H    -13.505430   -3.699870    0.277020
  H    -14.105890   -2.145970   -0.308790
  H    -12.619870   -2.215310    0.645350

 Total Charge           Charge          ....    0
 Multiplicity           Mult            ....    1
 Number of Electrons    NEL             ....  582
 Basis Dimension        Dim             .... 1298

ORBITAL ENERGIES
----------------

  NO   OCC          E(Eh)            E(eV)
   0   2.0000     -88.963428     -2420.8179
   1   2.0000     -88.963419     -2420.8177
   2   2.0000     -88.961293     -2420.7599
   3   2.0000     -88.960261     -2420.7318
   4   2.0000     -88.948701     -2420.4172
   5   2.0000     -88.948665     -2420.4162
   6   2.0000     -88.947052     -2420.3723
   7   2.0000     -88.946955     -2420.3697
   8   2.0000     -19.182922      -521.9939
   9   2.0000     -19.182013      -521.9691
  10   2.0000     -19.181588      -521.9576
  11   2.0000     -19.181184      -521.9465
  12   2.0000     -14.448935      -393.1755
  13   2.0000     -14.448507      -393.1639
  14   2.0000     -14.447969      -393.1492
  15   2.0000     -14.447541      -393.1376
  16   2.0000     -10.365800      -282.0677
  17   2.0000     -10.365615      -282.0627
  18   2.0000     -10.364660      -282.0367
  19   2.0000     -10.364479      -282.0318
  20   2.0000     -10.338753      -281.3318
  21   2.0000     -10.338460      -281.3238
  22   2.0000     -10.337513      -281.2980
  23   2.0000     -10.337390      -281.2947
  24   2.0000     -10.311746      -280.5969
  25   2.0000     -10.311329      -280.5855
  26   2.0000     -10.308480      -280.5080
  27   2.0000     -10.308091      -280.4974
  28   2.0000     -10.307868      -280.4913
  29   2.0000     -10.306468      -280.4533
  30   2.0000     -10.304985      -280.4129
  31   2.0000     -10.303879      -280.3828
  32   2.0000     -10.301182      -280.3094
  33   2.0000     -10.301041      -280.3056
  34   2.0000     -10.300926      -280.3025
  35   2.0000     -10.300650      -280.2949
  36   2.0000     -10.299914      -280.2749
  37   2.0000     -10.299705      -280.2692
  38   2.0000     -10.297791      -280.2171
  39   2.0000     -10.296798      -280.1901
  40   2.0000     -10.294851      -280.1371
  41   2.0000     -10.294627      -280.1310
  42   2.0000     -10.292175      -280.0643
  43   2.0000     -10.291982      -280.0591
  44   2.0000     -10.290889      -280.0293
  45   2.0000     -10.290642      -280.0226
  46   2.0000     -10.284197      -279.8472
  47   2.0000     -10.284019      -279.8424
  48   2.0000     -10.275441      -279.6090
  49   2.0000     -10.274919      -279.5948
  50   2.0000     -10.274700      -279.5888
  51   2.0000     -10.274616      -279.5865
  52   2.0000     -10.274075      -279.5718
  53   2.0000     -10.272981      -279.5420
  54   2.0000     -10.272204      -279.5209
  55   2.0000     -10.271955      -279.5141
  56   2.0000     -10.271087      -279.4905
  57   2.0000     -10.270961      -279.4871
  58   2.0000     -10.269145      -279.4376
  59   2.0000     -10.267975      -279.4058
  60   2.0000     -10.267353      -279.3889
  61   2.0000     -10.266172      -279.3567
  62   2.0000     -10.262695      -279.2621
  63   2.0000     -10.261768      -279.2369
  64   2.0000     -10.257497      -279.1207
  65   2.0000     -10.257425      -279.1187
  66   2.0000     -10.255564      -279.0681
  67   2.0000     -10.255561      -279.0680
  68   2.0000     -10.254835      -279.0483
  69   2.0000     -10.254378      -279.0358
  70   2.0000     -10.252318      -278.9798
  71   2.0000     -10.251521      -278.9581
  72   2.0000     -10.251004      -278.9440
  73   2.0000     -10.250484      -278.9298
  74   2.0000      -8.058162      -219.2737
  75   2.0000      -8.058024      -219.2700
  76   2.0000      -8.056314      -219.2235
  77   2.0000      -8.055318      -219.1963
  78   2.0000      -8.044208      -218.8940
  79   2.0000      -8.043853      -218.8844
  80   2.0000      -8.042772      -218.8549
  81   2.0000      -8.042687      -218.8526
  82   2.0000      -6.027523      -164.0172
  83   2.0000      -6.027421      -164.0145
  84   2.0000      -6.025647      -163.9662
  85   2.0000      -6.024675      -163.9397
  86   2.0000      -6.023264      -163.9014
  87   2.0000      -6.023226      -163.9003
  88   2.0000      -6.021171      -163.8444
  89   2.0000      -6.020374      -163.8227
  90   2.0000      -6.020162      -163.8169
  91   2.0000      -6.020097      -163.8152
  92   2.0000      -6.018783      -163.7794
  93   2.0000      -6.017780      -163.7521
  94   2.0000      -6.013916      -163.6470
  95   2.0000      -6.013605      -163.6385
  96   2.0000      -6.011978      -163.5942
  97   2.0000      -6.011895      -163.5920
  98   2.0000      -6.009677      -163.5316
  99   2.0000      -6.009380      -163.5235
 100   2.0000      -6.007785      -163.4801
 101   2.0000      -6.007781      -163.4800
 102   2.0000      -6.005455      -163.4167
 103   2.0000      -6.005076      -163.4064
 104   2.0000      -6.005073      -163.4063
 105   2.0000      -6.004959      -163.4032
 106   2.0000      -1.126487       -30.6533
 107   2.0000      -1.125368       -30.6228
 108   2.0000      -1.119596       -30.4657
 109   2.0000      -1.118489       -30.4356
 110   2.0000      -1.056625       -28.7522
 111   2.0000      -1.055501       -28.7216
 112   2.0000      -1.049403       -28.5557
 113   2.0000      -1.048291       -28.5254
 114   2.0000      -1.007802       -27.4237
 115   2.0000      -0.993280       -27.0285
 116   2.0000      -0.985507       -26.8170
 117   2.0000      -0.979939       -26.6655
 118   2.0000      -0.978915       -26.6376
 119   2.0000      -0.978336       -26.6219
 120   2.0000      -0.970372       -26.4052
 121   2.0000      -0.966516       -26.3002
 122   2.0000      -0.922057       -25.0904
 123   2.0000      -0.920956       -25.0605
 124   2.0000      -0.914013       -24.8716
 125   2.0000      -0.901912       -24.5423
 126   2.0000      -0.879126       -23.9222
 127   2.0000      -0.876409       -23.8483
 128   2.0000      -0.871880       -23.7250
 129   2.0000      -0.864111       -23.5137
 130   2.0000      -0.861742       -23.4492
 131   2.0000      -0.852753       -23.2046
 132   2.0000      -0.850109       -23.1326
 133   2.0000      -0.848830       -23.0978
 134   2.0000      -0.841854       -22.9080
 135   2.0000      -0.833793       -22.6887
 136   2.0000      -0.829898       -22.5827
 137   2.0000      -0.827628       -22.5209
 138   2.0000      -0.826626       -22.4936
 139   2.0000      -0.820713       -22.3327
 140   2.0000      -0.814188       -22.1552
 141   2.0000      -0.813617       -22.1396
 142   2.0000      -0.812653       -22.1134
 143   2.0000      -0.810335       -22.0503
 144   2.0000      -0.802210       -21.8293
 145   2.0000      -0.798085       -21.7170
 146   2.0000      -0.782312       -21.2878
 147   2.0000      -0.767868       -20.8947
 148   2.0000      -0.764746       -20.8098
 149   2.0000      -0.757677       -20.6174
 150   2.0000      -0.754094       -20.5199
 151   2.0000      -0.753069       -20.4921
 152   2.0000      -0.745773       -20.2935
 153   2.0000      -0.725465       -19.7409
 154   2.0000      -0.709747       -19.3132
 155   2.0000      -0.703862       -19.1530
 156   2.0000      -0.702926       -19.1276
 157   2.0000      -0.700508       -19.0618
 158   2.0000      -0.688999       -18.7486
 159   2.0000      -0.687048       -18.6955
 160   2.0000      -0.679912       -18.5013
 161   2.0000      -0.677212       -18.4279
 162   2.0000      -0.666534       -18.1373
 163   2.0000      -0.662776       -18.0351
 164   2.0000      -0.661599       -18.0030
 165   2.0000      -0.648408       -17.6441
 166   2.0000      -0.643354       -17.5066
 167   2.0000      -0.640916       -17.4402
 168   2.0000      -0.634756       -17.2726
 169   2.0000      -0.633195       -17.2301
 170   2.0000      -0.631665       -17.1885
 171   2.0000      -0.626683       -17.0529
 172   2.0000      -0.622548       -16.9404
 173   2.0000      -0.619870       -16.8675
 174   2.0000      -0.613783       -16.7019
 175   2.0000      -0.611129       -16.6297
 176   2.0000      -0.608944       -16.5702
 177   2.0000      -0.603232       -16.4148
 178   2.0000      -0.602232       -16.3876
 179   2.0000      -0.600061       -16.3285
 180   2.0000      -0.592539       -16.1238
 181   2.0000      -0.582104       -15.8399
 182   2.0000      -0.580149       -15.7867
 183   2.0000      -0.578912       -15.7530
 184   2.0000      -0.575463       -15.6591
 185   2.0000      -0.574246       -15.6260
 186   2.0000      -0.571903       -15.5623
 187   2.0000      -0.560291       -15.2463
 188   2.0000      -0.550701       -14.9853
 189   2.0000      -0.544488       -14.8163
 190   2.0000      -0.543527       -14.7901
 191   2.0000      -0.542358       -14.7583
 192   2.0000      -0.541335       -14.7305
 193   2.0000      -0.540422       -14.7056
 194   2.0000      -0.535068       -14.5599
 195   2.0000      -0.530849       -14.4451
 196   2.0000      -0.530368       -14.4320
 197   2.0000      -0.528586       -14.3836
 198   2.0000      -0.526755       -14.3337
 199   2.0000      -0.517616       -14.0850
 200   2.0000      -0.516934       -14.0665
 201   2.0000      -0.514639       -14.0040
 202   2.0000      -0.514024       -13.9873
 203   2.0000      -0.513009       -13.9597
 204   2.0000      -0.511247       -13.9118
 205   2.0000      -0.506161       -13.7733
 206   2.0000      -0.504854       -13.7378
 207   2.0000      -0.504062       -13.7162
 208   2.0000      -0.501366       -13.6429
 209   2.0000      -0.497104       -13.5269
 210   2.0000      -0.495680       -13.4882
 211   2.0000      -0.493183       -13.4202
 212   2.0000      -0.492346       -13.3974
 213   2.0000      -0.488775       -13.3003
 214   2.0000      -0.488573       -13.2947
 215   2.0000      -0.483729       -13.1629
 216   2.0000      -0.482382       -13.1263
 217   2.0000      -0.481336       -13.0978
 218   2.0000      -0.478648       -13.0247
 219   2.0000      -0.476832       -12.9753
 220   2.0000      -0.475168       -12.9300
 221   2.0000      -0.474464       -12.9108
 222   2.0000      -0.473743       -12.8912
 223   2.0000      -0.473184       -12.8760
 224   2.0000      -0.469162       -12.7666
 225   2.0000      -0.468294       -12.7429
 226   2.0000      -0.467021       -12.7083
 227   2.0000      -0.465869       -12.6769
 228   2.0000      -0.463352       -12.6085
 229   2.0000      -0.462749       -12.5920
 230   2.0000      -0.460685       -12.5359
 231   2.0000      -0.460082       -12.5195
 232   2.0000      -0.458197       -12.4682
 233   2.0000      -0.456065       -12.4101
 234   2.0000      -0.453034       -12.3277
 235   2.0000      -0.451040       -12.2734
 236   2.0000      -0.448894       -12.2150
 237   2.0000      -0.448389       -12.2013
 238   2.0000      -0.447966       -12.1898
 239   2.0000      -0.446136       -12.1400
 240   2.0000      -0.442305       -12.0357
 241   2.0000      -0.440705       -11.9922
 242   2.0000      -0.440109       -11.9760
 243   2.0000      -0.439236       -11.9522
 244   2.0000      -0.437642       -11.9089
 245   2.0000      -0.433171       -11.7872
 246   2.0000      -0.431214       -11.7339
 247   2.0000      -0.429864       -11.6972
 248   2.0000      -0.426944       -11.6177
 249   2.0000      -0.426024       -11.5927
 250   2.0000      -0.425447       -11.5770
 251   2.0000      -0.424735       -11.5576
 252   2.0000      -0.422243       -11.4898
 253   2.0000      -0.419858       -11.4249
 254   2.0000      -0.418810       -11.3964
 255   2.0000      -0.417830       -11.3697
 256   2.0000      -0.412737       -11.2312
 257   2.0000      -0.412301       -11.2193
 258   2.0000      -0.409820       -11.1518
 259   2.0000      -0.408830       -11.1248
 260   2.0000      -0.405340       -11.0299
 261   2.0000      -0.404332       -11.0024
 262   2.0000      -0.403435       -10.9780
 263   2.0000      -0.402465       -10.9516
 264   2.0000      -0.401127       -10.9152
 265   2.0000      -0.392136       -10.6706
 266   2.0000      -0.380828       -10.3629
 267   2.0000      -0.376274       -10.2389
 268   2.0000      -0.340349        -9.2614
 269   2.0000      -0.339120        -9.2279
 270   2.0000      -0.337764        -9.1910
 271   2.0000      -0.332439        -9.0461
 272   2.0000      -0.327052        -8.8995
 273   2.0000      -0.325461        -8.8562
 274   2.0000      -0.324482        -8.8296
 275   2.0000      -0.323658        -8.8072
 276   2.0000      -0.322454        -8.7744
 277   2.0000      -0.321552        -8.7499
 278   2.0000      -0.315360        -8.5814
 279   2.0000      -0.314619        -8.5612
 280   2.0000      -0.313653        -8.5349
 281   2.0000      -0.312964        -8.5162
 282   2.0000      -0.307873        -8.3776
 283   2.0000      -0.306729        -8.3465
 284   2.0000      -0.302955        -8.2438
 285   2.0000      -0.299375        -8.1464
 286   2.0000      -0.285809        -7.7772
 287   2.0000      -0.271623        -7.3912
 288   2.0000      -0.244052        -6.6410
 289   2.0000      -0.228806        -6.2261
 290   2.0000      -0.219092        -5.9618
 291   0.0000      -0.076383        -2.0785
 292   0.0000      -0.064193        -1.7468
 293   0.0000      -0.033718        -0.9175
 294   0.0000      -0.009707        -0.2641
 295   0.0000      -0.007329        -0.1994

MULLIKEN ATOMIC CHARGES
-----------------------
   0 C :    0.079271
   1 C :   -0.138916
   2 C :    0.138183
   3 C :    0.093573
   4 C :   -0.136941
   5 C :    0.140745
   6 C :   -0.098460
   7 C :    0.004385
   8 S :    0.112077
   9 C :   -0.077986
  10 C :    0.001039
  11 S :    0.118577
  12 C :   -0.217381
  13 C :   -0.215720
  14 C :   -0.022289
  15 C :   -0.030971
  16 C :    0.008648
  17 C :    0.010359
  18 C :   -0.125230
  19 S :    0.115603
  20 S :    0.107400
  21 C :   -0.122063
  22 C :    0.011657
  23 C :   -0.005690
  24 C :    0.027377
  25 C :    0.017299
  26 C :   -0.182839
  27 S :    0.119910
  28 C :    0.024475
  29 C :    0.010387
  30 C :   -0.180245
  31 S :    0.127884
  32 C :    0.097960
  33 C :    0.006316
  34 C :    0.102412
  35 C :   -0.001221
  36 C :    0.177724
  37 C :   -0.076131
  38 C :   -0.085609
  39 C :    0.155600
  40 N :   -0.262034
  41 C :    0.152519
  42 N :   -0.263900
  43 C :    0.185253
  44 C :   -0.160870
  45 C :    0.000036
  46 C :    0.056652
  47 C :   -0.054270
  48 S :    0.111834
  49 C :    0.082151
  50 C :    0.008139
  51 O :   -0.217036
  52 O :   -0.219476
  53 C :    0.082194
  54 C :    0.009936
  55 C :    0.179243
  56 C :   -0.076376
  57 C :   -0.085680
  58 C :    0.158148
  59 N :   -0.263634
  60 C :    0.155643
  61 N :   -0.264615
  62 C :    0.187215
  63 C :   -0.162761
  64 C :    0.002159
  65 C :    0.052634
  66 C :   -0.051426
  67 S :    0.112332
  68 C :    0.084230
  69 C :    0.008206
  70 O :   -0.219631
  71 O :   -0.219874
  72 C :    0.084980
  73 C :    0.008902
  74 H :   -0.010083
  75 H :   -0.014348
  76 H :   -0.013994
  77 H :    0.003649
  78 H :    0.004586
  79 H :   -0.003606
  80 H :   -0.007697
  81 H :   -0.024983
  82 H :   -0.010625
  83 H :   -0.025242
  84 H :    0.009534
  85 H :    0.019163
  86 H :    0.019566
  87 H :    0.018101
  88 H :    0.013423
  89 H :    0.007037
  90 H :    0.019748
  91 H :    0.020563
  92 H :    0.017194
  93 H :    0.018447
  94 H :    0.010086
  95 H :   -0.005091
  96 H :    0.031712
  97 H :    0.034577
  98 H :    0.043587
  99 H :    0.022040
 100 H :    0.020089
 101 H :    0.026012
 102 H :    0.033345
 103 H :    0.043419
 104 H :    0.019002
 105 H :    0.018984
 106 H :    0.027158
 107 H :    0.009517
 108 H :   -0.003954
 109 H :    0.032136
 110 H :    0.031368
 111 H :    0.043324
 112 H :    0.022309
 113 H :    0.019903
 114 H :    0.026483
 115 H :    0.032499
 116 H :    0.042703
 117 H :    0.019163
 118 H :    0.020200
 119 H :    0.027003
Sum of atomic charges:   -0.0000000

LOEWDIN ATOMIC CHARGES
----------------------
   0 C :   -0.041021
   1 C :   -0.149125
   2 C :   -0.054408
   3 C :   -0.036073
   4 C :   -0.141413
   5 C :   -0.053979
   6 C :   -0.056876
   7 C :   -0.169495
   8 S :    0.417943
   9 C :   -0.054966
  10 C :   -0.171790
  11 S :    0.392808
  12 C :   -0.179772
  13 C :   -0.181372
  14 C :   -0.172942
  15 C :   -0.174922
  16 C :   -0.049524
  17 C :   -0.011692
  18 C :   -0.191914
  19 S :    0.453880
  20 S :    0.455199
  21 C :   -0.188571
  22 C :   -0.011551
  23 C :   -0.057585
  24 C :   -0.062549
  25 C :   -0.074436
  26 C :   -0.164615
  27 S :    0.435836
  28 C :   -0.056064
  29 C :   -0.076447
  30 C :   -0.164820
  31 S :    0.426768
  32 C :   -0.043340
  33 C :   -0.051858
  34 C :   -0.043203
  35 C :   -0.052530
  36 C :    0.064087
  37 C :   -0.127769
  38 C :   -0.128905
  39 C :    0.082965
  40 N :   -0.001359
  41 C :    0.082036
  42 N :   -0.000300
  43 C :    0.066806
  44 C :   -0.195224
  45 C :   -0.017348
  46 C :   -0.061020
  47 C :   -0.174147
  48 S :    0.454164
  49 C :    0.024790
  50 C :   -0.063989
  51 O :   -0.205945
  52 O :   -0.207230
  53 C :    0.024708
  54 C :   -0.064478
  55 C :    0.063225
  56 C :   -0.126653
  57 C :   -0.129248
  58 C :    0.083222
  59 N :   -0.001560
  60 C :    0.082828
  61 N :   -0.000251
  62 C :    0.067713
  63 C :   -0.195599
  64 C :   -0.016735
  65 C :   -0.061156
  66 C :   -0.173518
  67 S :    0.454840
  68 C :    0.024804
  69 C :   -0.064125
  70 O :   -0.206472
  71 O :   -0.205760
  72 C :    0.025124
  73 C :   -0.064472
  74 H :    0.026625
  75 H :    0.017912
  76 H :    0.033489
  77 H :    0.036715
  78 H :    0.036762
  79 H :    0.030936
  80 H :    0.023031
  81 H :    0.027390
  82 H :    0.030213
  83 H :    0.026956
  84 H :    0.033903
  85 H :    0.031702
  86 H :    0.026193
  87 H :    0.024693
  88 H :    0.019408
  89 H :    0.033186
  90 H :    0.031755
  91 H :    0.026420
  92 H :    0.024232
  93 H :    0.020577
  94 H :    0.035494
  95 H :    0.033873
  96 H :    0.025637
  97 H :    0.010777
  98 H :    0.037743
  99 H :    0.016083
 100 H :    0.029935
 101 H :    0.030484
 102 H :    0.010781
 103 H :    0.037604
 104 H :    0.014605
 105 H :    0.029389
 106 H :    0.030777
 107 H :    0.035522
 108 H :    0.034152
 109 H :    0.025846
 110 H :    0.009869
 111 H :    0.037664
 112 H :    0.016075
 113 H :    0.029817
 114 H :    0.030700
 115 H :    0.010599
 116 H :    0.037613
 117 H :    0.014693
 118 H :    0.029759
 119 H :    0.030780

  Mayer bond orders larger than 0.100000
B(  0-C ,  1-C ) :   1.2735 B(  0-C ,  5-C ) :   1.2947 B(  0-C ,  9-C ) :   1.1817
B(  1-C ,  2-C ) :   1.3976 B(  1-C , 11-S ) :   1.0604 B(  2-C ,  3-C ) :   1.3196
B(  2-C , 13-C ) :   0.9856 B(  3-C ,  4-C ) :   1.2701 B(  3-C ,  6-C ) :   1.1848
B(  4-C ,  5-C ) :   1.4273 B(  4-C ,  8-S ) :   1.0542 B(  5-C , 12-C ) :   0.9863
B(  6-C ,  7-C ) :   1.5504 B(  6-C , 74-H ) :   0.9873 B(  7-C ,  8-S ) :   1.0599
B(  7-C , 14-C ) :   1.1481 B(  9-C , 10-C ) :   1.5935 B(  9-C , 75-H ) :   0.9767
B( 10-C , 11-S ) :   1.0581 B( 10-C , 15-C ) :   1.1024 B( 12-C , 24-C ) :   1.5742
B( 12-C , 26-C ) :   0.1044 B( 12-C , 27-S ) :   1.1254 B( 13-C , 28-C ) :   1.5700
B( 13-C , 30-C ) :   0.1058 B( 13-C , 31-S ) :   1.1314 B( 14-C , 20-S ) :   1.1264
B( 14-C , 23-C ) :   1.4686 B( 15-C , 16-C ) :   1.4828 B( 15-C , 18-C ) :   0.1066
B( 15-C , 19-S ) :   1.1275 B( 16-C , 17-C ) :   1.2786 B( 16-C , 76-H ) :   0.9987
B( 17-C , 18-C ) :   1.4674 B( 17-C , 77-H ) :   0.9650 B( 18-C , 19-S ) :   1.0756
B( 18-C , 36-C ) :   1.1637 B( 20-S , 21-C ) :   1.0720 B( 21-C , 22-C ) :   1.4795
B( 21-C , 55-C ) :   1.1594 B( 22-C , 23-C ) :   1.2699 B( 22-C , 78-H ) :   0.9663
B( 23-C , 79-H ) :   0.9963 B( 24-C , 25-C ) :   1.2198 B( 24-C , 80-H ) :   0.9889
B( 25-C , 26-C ) :   1.6104 B( 25-C , 81-H ) :   0.9969 B( 26-C , 27-S ) :   1.1319
B( 26-C , 32-C ) :   1.0428 B( 28-C , 29-C ) :   1.2159 B( 28-C , 82-H ) :   1.0008
B( 29-C , 30-C ) :   1.6056 B( 29-C , 83-H ) :   0.9974 B( 30-C , 31-S ) :   1.1325
B( 30-C , 34-C ) :   1.0434 B( 32-C , 33-C ) :   1.0928 B( 32-C , 84-H ) :   0.9344
B( 32-C , 85-H ) :   0.9290 B( 33-C , 86-H ) :   0.9719 B( 33-C , 87-H ) :   0.9683
B( 33-C , 88-H ) :   0.9730 B( 34-C , 35-C ) :   1.0919 B( 34-C , 89-H ) :   0.9342
B( 34-C , 90-H ) :   0.9290 B( 35-C , 91-H ) :   0.9723 B( 35-C , 92-H ) :   0.9688
B( 35-C , 93-H ) :   0.9732 B( 36-C , 37-C ) :   1.3699 B( 36-C , 40-N ) :   1.1793
B( 37-C , 38-C ) :   1.2215 B( 37-C , 41-C ) :   0.9973 B( 38-C , 39-C ) :   0.9947
B( 38-C , 43-C ) :   1.3757 B( 39-C , 40-N ) :   1.0511 B( 39-C , 51-O ) :   2.0177
B( 40-N , 49-C ) :   0.9448 B( 41-C , 42-N ) :   1.0512 B( 41-C , 52-O ) :   2.0125
B( 42-N , 43-C ) :   1.1806 B( 42-N , 53-C ) :   0.9436 B( 43-C , 44-C ) :   1.1667
B( 44-C , 45-C ) :   1.5061 B( 44-C , 48-S ) :   1.0905 B( 45-C , 46-C ) :   1.2619
B( 45-C , 94-H ) :   0.9615 B( 46-C , 47-C ) :   1.5366 B( 46-C , 95-H ) :   0.9970
B( 47-C , 48-S ) :   1.1733 B( 47-C , 96-H ) :   0.9723 B( 49-C , 50-C ) :   1.1142
B( 49-C , 97-H ) :   0.9430 B( 49-C , 98-H ) :   0.9212 B( 50-C , 99-H ) :   0.9660
B( 50-C ,100-H ) :   0.9681 B( 50-C ,101-H ) :   0.9635 B( 51-O , 94-H ) :   0.1071
B( 52-O , 77-H ) :   0.1074 B( 53-C , 54-C ) :   1.1168 B( 53-C ,102-H ) :   0.9436
B( 53-C ,103-H ) :   0.9213 B( 54-C ,104-H ) :   0.9654 B( 54-C ,105-H ) :   0.9674
B( 54-C ,106-H ) :   0.9628 B( 55-C , 56-C ) :   1.3718 B( 55-C , 59-N ) :   1.1789
B( 56-C , 57-C ) :   1.2226 B( 56-C , 60-C ) :   0.9971 B( 57-C , 58-C ) :   0.9969
B( 57-C , 62-C ) :   1.3737 B( 58-C , 59-N ) :   1.0502 B( 58-C , 70-O ) :   2.0147
B( 59-N , 68-C ) :   0.9450 B( 60-C , 61-N ) :   1.0495 B( 60-C , 71-O ) :   2.0124
B( 61-N , 62-C ) :   1.1821 B( 61-N , 72-C ) :   0.9437 B( 62-C , 63-C ) :   1.1660
B( 63-C , 64-C ) :   1.5045 B( 63-C , 67-S ) :   1.0916 B( 64-C , 65-C ) :   1.2626
B( 64-C ,107-H ) :   0.9623 B( 65-C , 66-C ) :   1.5363 B( 65-C ,108-H ) :   0.9972
B( 66-C , 67-S ) :   1.1731 B( 66-C ,109-H ) :   0.9719 B( 68-C , 69-C ) :   1.1145
B( 68-C ,110-H ) :   0.9428 B( 68-C ,111-H ) :   0.9210 B( 69-C ,112-H ) :   0.9656
B( 69-C ,113-H ) :   0.9680 B( 69-C ,114-H ) :   0.9633 B( 70-O ,107-H ) :   0.1072
B( 71-O , 78-H ) :   0.1072 B( 72-C , 73-C ) :   1.1157 B( 72-C ,115-H ) :   0.9437
B( 72-C ,116-H ) :   0.9212 B( 73-C ,117-H ) :   0.9655 B( 73-C ,118-H ) :   0.9676
B( 73-C ,119-H ) :   0.9630

-----------------------------------------------------------------------------
         ABSORPTION SPECTRUM VIA TRANSITION ELECTRIC DIPOLE MOMENTS
-----------------------------------------------------------------------------
State   Energy  Wavelength   fosc         T2         TX        TY        TZ
        (cm-1)    (nm)                  (au**2)     (au)      (au)      (au)
-----------------------------------------------------------------------------
   0   17154.5    582.9   2.635207139  50.57220   6.81641   1.75721   1.01040
   1   18946.6    527.8   0.009294307   0.16150   0.24084  -0.29544  -0.12732
   2   22410.6    446.2   0.116903401   1.71731   0.35629  -1.23033  -0.27688
   3   23631.4    423.2   0.012091943   0.16845   0.24737  -0.32751   0.00061
   4   25481.2    392.4   0.048465903   0.62617  -0.70111  -0.31403   0.18973
   5   27124.7    368.7   0.268903882   3.26368   1.22392   1.32041   0.14904
   6   27395.1    365.0   0.026905097   0.32332  -0.38596   0.41733  -0.01409
   7   28857.9    346.5   0.007603196   0.08674  -0.28438   0.07574   0.01127
   8   29148.4    343.1   0.213738294   2.41403  -1.45213   0.55180  -0.02927
   9   29358.3    340.6   0.061300438   0.68740  -0.30508  -0.77027  -0.03159
  10   30166.3    331.5   0.001286105   0.01404   0.06473  -0.09914  -0.00400
  11   30470.8    328.2   0.092107507   0.99515   0.31606  -0.94576   0.02801
  12   30744.4    325.3   0.348944236   3.73650   0.90159   1.70987  -0.00197
  13   32203.5    310.5   0.001176842   0.01203  -0.05899  -0.05097  -0.07716
  14   32972.2    303.3   0.108681027   1.08513  -1.00680   0.25844  -0.06856
  15   33233.4    300.9   0.048710136   0.48252   0.39956  -0.56802  -0.01532
  16   33585.9    297.7   0.005397700   0.05291   0.03640  -0.21471  -0.07404
  17   33778.6    296.0   0.005795162   0.05648   0.10526  -0.21304   0.00374
  18   33843.1    295.5   0.019707333   0.19170   0.12932  -0.41639  -0.04005
  19   34645.7    288.6   0.153637436   1.45990   0.41964   1.13250   0.03537
  20   35512.3    281.6   0.034262052   0.31762   0.02146   0.56231   0.03113
  21   35716.5    280.0   0.054699651   0.50419  -0.70316  -0.07213  -0.06745
  22   35961.9    278.1   0.007404753   0.06779  -0.19726  -0.16798  -0.02567
  23   36284.1    275.6   0.123142019   1.11729   1.00346   0.32277   0.07854
  24   36518.3    273.8   0.007404050   0.06675  -0.16994  -0.19286   0.02600
  25   36801.2    271.7   0.228861703   2.04732   0.90449   1.08563   0.22503
  26   37057.9    269.8   0.005458454   0.04849   0.13217  -0.17430  -0.02536
  27   37515.2    266.6   0.012923814   0.11341  -0.29096  -0.15722  -0.06354
  28   38039.0    262.9   0.105360201   0.91185  -0.65410   0.68976   0.09072
  29   38142.3    262.2   0.022612038   0.19517  -0.36790   0.02060  -0.24371
  30   38256.0    261.4   0.087319590   0.75143   0.01243   0.86626  -0.02957
  31   38543.6    259.4   0.038636519   0.33001   0.40815   0.40180   0.04449
  32   38827.4    257.5   0.022716445   0.19261  -0.41463   0.13399  -0.05229
  33   39102.9    255.7   0.054166580   0.45604   0.31603  -0.59633  -0.02354
  34   39491.5    253.2   0.020240628   0.16873   0.04950  -0.40741   0.01724
  35   39596.0    252.6   0.145695687   1.21135   1.09976  -0.04167   0.01167
  36   40270.3    248.3   0.231241353   1.89041  -1.30366  -0.41762  -0.12836

FINAL SINGLE POINT ENERGY     -5938.952862381620

DIPOLE MOMENT
-------------
                                X             Y             Z
Electronic contribution:     -7.42802      -1.81737       0.66597
Nuclear contribution   :      7.27902       1.87976      -0.72775
                        -----------------------------------------
Total Dipole Moment    :     -0.14900       0.06240      -0.06178
                        -----------------------------------------
Magnitude (a.u.)       :      0.17295
Magnitude (Debye)      :      0.43960

Rotational constants in cm-1:     0.001949     0.000197     0.000180
Rotational constants in MHz :    58.414632     5.905006     5.406529

                             ****ORCA TERMINATED NORMALLY****
TOTAL RUN TIME: 0 days 0 hours 11 minutes 41 seconds 782 msec
