                         Program Version 4.2.0 -  RELEASE  -
|  1> # ORCA input file
|  2> # SCF done       -166.196189104845          0.000422424425
|  3> ! CAM-B3LYP def2-SVP def2/J RIJCOSX Grid4 TightSCF
|  4> %maxcore 5000
|  5> %tddft
|  6>     Mode sTDDFT
|  7>     Ethresh 5.0
|  8>     maxcore 5000
|  9> end
| 10>
| 11> %pal
| 12>   nprocs 6
| 13>   end
| 14> * xyz 0 1
| 15>    C        3.52761         7.84645        -6.46794
| 16>    C        3.43398         6.62744        -5.67327
| 17>    S        1.75869         6.21566        -5.38575
| 18>    C        1.21423         7.60576        -6.30476
| 19>    N        2.25903         8.32960        -6.77687
| 20>    C        2.14526         9.50833        -7.61605
| 21>    C        1.93379         9.13499        -9.07836
| 22>    C       -0.13047         7.83782        -6.44876
| 23>    C       -0.73000         8.89718        -7.15038
| 24>    C       -1.04563         6.94514        -5.85291
| 25>    N       -1.28442         9.73305        -7.71015
| 26>    N       -1.79006         6.21809        -5.36993
| 27>    O        4.54742         8.39222        -6.82372
| 28>    C        4.53877         5.94826        -5.26891
| 29>    C        4.59765         4.75438        -4.52262
| 30>    C        3.58411         4.00230        -3.95410
| 31>    C        4.01485         2.85016        -3.29655
| 32>    C        5.39907         2.69563        -3.36427
| 33>    S        6.14339         4.00885        -4.22256
| 34>    C        3.09984         1.91393        -2.56607
| 35>    C        1.75122         2.53061        -2.20846
| 36>    C        6.22203         1.65023        -2.85878
| 37>    S        7.93174         1.91352        -2.65504
| 38>    C        8.16820         0.27762        -2.10153
| 39>    C        6.96985        -0.42367        -2.08217
| 40>    C        5.88971         0.35943        -2.50821
| 41>    C        6.86022        -1.85256        -1.64777
| 42>    C        5.43219        -2.37850        -1.57488
| 43>    C        9.48156        -0.13972        -1.75911
| 44>    C       10.61351         0.65143        -1.70641
| 45>    C       11.76605        -0.04115        -1.35336
| 46>    C       11.56101        -1.39059        -1.13428
| 47>    S        9.88174        -1.78783        -1.36604
| 48>    C       12.53992        -2.35082        -0.76845
| 49>    S       14.15712        -1.79757        -0.42318
| 50>    C       14.69825        -3.42006        -0.10392
| 51>    C       13.65568        -4.31105        -0.26731
| 52>    C       12.43953        -3.73103        -0.63413
| 53>    C       11.17061        -4.49016        -0.86595
| 54>    C       11.31425        -6.00094        -0.73400
| 55>    C       16.02628        -3.75426         0.26339
| 56>    C       17.12296        -2.93402         0.52875
| 57>    C       18.25925        -3.66746         0.86749
| 58>    C       18.07919        -5.04026         0.86855
| 59>    S       16.43719        -5.43542         0.43859
| 60>    C       17.06337        -1.44033         0.45760
| 61>    C       18.35865        -0.74512         0.85744
| 62>    C       18.98471        -6.08309         1.14349
| 63>    C       21.10811        -7.16928         1.74849
| 64>    C       20.28888        -5.98687         1.51255
| 65>    S       21.22505        -4.53384         1.77625
| 66>    C       22.64364        -5.47377         2.19798
| 67>    N       22.39839        -6.80538         2.12313
| 68>    C       23.38473        -7.84795         2.33893
| 69>    C       24.25474        -8.05747         1.10532
| 70>    C       23.80020        -4.83013         2.55977
| 71>    C       25.01443        -5.43105         2.93187
| 72>    C       23.82067        -3.41995         2.58071
| 73>    N       26.03627        -5.85690         3.23859
| 74>    N       23.83882        -2.27297         2.59689
| 75>    O       20.74803        -8.32067         1.64932
| 76>    H        3.09260        10.04317        -7.50457
| 77>    H        1.32962        10.13416        -7.25046
| 78>    H        2.76221         8.52578        -9.43304
| 79>    H        1.88456        10.04025        -9.67568
| 80>    H        1.00429         8.58655        -9.21284
| 81>    H        5.48142         6.38382        -5.57892
| 82>    H        2.55256         4.29465        -4.00915
| 83>    H        3.59935         1.58856        -1.64967
| 84>    H        2.92955         1.02711        -3.18499
| 85>    H        1.88702         3.45551        -1.65318
| 86>    H        1.18740         1.83821        -1.58796
| 87>    H        1.16332         2.73879        -3.09840
| 88>    H        4.89346        -0.02456        -2.59798
| 89>    H        7.32841        -1.95396        -0.66346
| 90>    H        7.43849        -2.47567        -2.33793
| 91>    H        4.83462        -1.78062        -0.89069
| 92>    H        5.44074        -3.40364        -1.21275
| 93>    H        4.96282        -2.37023        -2.55555
| 94>    H       10.58790         1.70545        -1.91959
| 95>    H       12.73591         0.41485        -1.26115
| 96>    H       13.79591        -5.36541        -0.11429
| 97>    H       10.79771        -4.25040        -1.86700
| 98>    H       10.41634        -4.13678        -0.15515
| 99>    H       12.04089        -6.38412        -1.44633
|100>    H       10.35706        -6.47611        -0.93441
|101>    H       11.62612        -6.27526         0.27075
|102>    H       19.20241        -3.21361         1.10635
|103>    H       16.25264        -1.09189         1.10557
|104>    H       16.79746        -1.14935        -0.56399
|105>    H       18.63550        -0.99714         1.87820
|106>    H       18.22620         0.33216         0.79716
|107>    H       19.17259        -1.02435         0.19309
|108>    H       18.61128        -7.09644         1.05260
|109>    H       22.81250        -8.75643         2.54677
|110>    H       23.99384        -7.59574         3.20847
|111>    H       23.63606        -8.32166         0.25046
|112>    H       24.95464        -8.86583         1.29359
|113>    H       24.82426        -7.16141         0.86970
|114> *
|115>
|116>                          ****END OF INPUT****

CARTESIAN COORDINATES (ANGSTROEM)
---------------------------------
  C      3.527610    7.846450   -6.467940
  C      3.433980    6.627440   -5.673270
  S      1.758690    6.215660   -5.385750
  C      1.214230    7.605760   -6.304760
  N      2.259030    8.329600   -6.776870
  C      2.145260    9.508330   -7.616050
  C      1.933790    9.134990   -9.078360
  C     -0.130470    7.837820   -6.448760
  C     -0.730000    8.897180   -7.150380
  C     -1.045630    6.945140   -5.852910
  N     -1.284420    9.733050   -7.710150
  N     -1.790060    6.218090   -5.369930
  O      4.547420    8.392220   -6.823720
  C      4.538770    5.948260   -5.268910
  C      4.597650    4.754380   -4.522620
  C      3.584110    4.002300   -3.954100
  C      4.014850    2.850160   -3.296550
  C      5.399070    2.695630   -3.364270
  S      6.143390    4.008850   -4.222560
  C      3.099840    1.913930   -2.566070
  C      1.751220    2.530610   -2.208460
  C      6.222030    1.650230   -2.858780
  S      7.931740    1.913520   -2.655040
  C      8.168200    0.277620   -2.101530
  C      6.969850   -0.423670   -2.082170
  C      5.889710    0.359430   -2.508210
  C      6.860220   -1.852560   -1.647770
  C      5.432190   -2.378500   -1.574880
  C      9.481560   -0.139720   -1.759110
  C     10.613510    0.651430   -1.706410
  C     11.766050   -0.041150   -1.353360
  C     11.561010   -1.390590   -1.134280
  S      9.881740   -1.787830   -1.366040
  C     12.539920   -2.350820   -0.768450
  S     14.157120   -1.797570   -0.423180
  C     14.698250   -3.420060   -0.103920
  C     13.655680   -4.311050   -0.267310
  C     12.439530   -3.731030   -0.634130
  C     11.170610   -4.490160   -0.865950
  C     11.314250   -6.000940   -0.734000
  C     16.026280   -3.754260    0.263390
  C     17.122960   -2.934020    0.528750
  C     18.259250   -3.667460    0.867490
  C     18.079190   -5.040260    0.868550
  S     16.437190   -5.435420    0.438590
  C     17.063370   -1.440330    0.457600
  C     18.358650   -0.745120    0.857440
  C     18.984710   -6.083090    1.143490
  C     21.108110   -7.169280    1.748490
  C     20.288880   -5.986870    1.512550
  S     21.225050   -4.533840    1.776250
  C     22.643640   -5.473770    2.197980
  N     22.398390   -6.805380    2.123130
  C     23.384730   -7.847950    2.338930
  C     24.254740   -8.057470    1.105320
  C     23.800200   -4.830130    2.559770
  C     25.014430   -5.431050    2.931870
  C     23.820670   -3.419950    2.580710
  N     26.036270   -5.856900    3.238590
  N     23.838820   -2.272970    2.596890
  O     20.748030   -8.320670    1.649320
  H      3.092600   10.043170   -7.504570
  H      1.329620   10.134160   -7.250460
  H      2.762210    8.525780   -9.433040
  H      1.884560   10.040250   -9.675680
  H      1.004290    8.586550   -9.212840
  H      5.481420    6.383820   -5.578920
  H      2.552560    4.294650   -4.009150
  H      3.599350    1.588560   -1.649670
  H      2.929550    1.027110   -3.184990
  H      1.887020    3.455510   -1.653180
  H      1.187400    1.838210   -1.587960
  H      1.163320    2.738790   -3.098400
  H      4.893460   -0.024560   -2.597980
  H      7.328410   -1.953960   -0.663460
  H      7.438490   -2.475670   -2.337930
  H      4.834620   -1.780620   -0.890690
  H      5.440740   -3.403640   -1.212750
  H      4.962820   -2.370230   -2.555550
  H     10.587900    1.705450   -1.919590
  H     12.735910    0.414850   -1.261150
  H     13.795910   -5.365410   -0.114290
  H     10.797710   -4.250400   -1.867000
  H     10.416340   -4.136780   -0.155150
  H     12.040890   -6.384120   -1.446330
  H     10.357060   -6.476110   -0.934410
  H     11.626120   -6.275260    0.270750
  H     19.202410   -3.213610    1.106350
  H     16.252640   -1.091890    1.105570
  H     16.797460   -1.149350   -0.563990
  H     18.635500   -0.997140    1.878200
  H     18.226200    0.332160    0.797160
  H     19.172590   -1.024350    0.193090
  H     18.611280   -7.096440    1.052600
  H     22.812500   -8.756430    2.546770
  H     23.993840   -7.595740    3.208470
  H     23.636060   -8.321660    0.250460
  H     24.954640   -8.865830    1.293590
  H     24.824260   -7.161410    0.869700

 Total Charge           Charge          ....    0
 Multiplicity           Mult            ....    1
 Number of Electrons    NEL             ....  484
 Basis Dimension        Dim             .... 1072

ORBITAL ENERGIES
----------------

  NO   OCC          E(Eh)            E(eV)
   0   2.0000     -88.985229     -2421.4112
   1   2.0000     -88.985111     -2421.4080
   2   2.0000     -88.972097     -2421.0538
   3   2.0000     -88.971717     -2421.0435
   4   2.0000     -88.971631     -2421.0412
   5   2.0000     -88.970119     -2421.0000
   6   2.0000     -88.965718     -2420.8803
   7   2.0000     -19.218639      -522.9657
   8   2.0000     -19.218600      -522.9647
   9   2.0000     -14.494358      -394.4115
  10   2.0000     -14.494255      -394.4087
  11   2.0000     -14.408249      -392.0684
  12   2.0000     -14.408200      -392.0671
  13   2.0000     -14.406783      -392.0285
  14   2.0000     -14.406709      -392.0265
  15   2.0000     -10.406465      -283.1743
  16   2.0000     -10.406395      -283.1724
  17   2.0000     -10.399199      -282.9766
  18   2.0000     -10.399134      -282.9748
  19   2.0000     -10.336671      -281.2751
  20   2.0000     -10.336659      -281.2748
  21   2.0000     -10.325283      -280.9652
  22   2.0000     -10.325248      -280.9643
  23   2.0000     -10.325029      -280.9583
  24   2.0000     -10.324565      -280.9457
  25   2.0000     -10.320773      -280.8425
  26   2.0000     -10.320770      -280.8424
  27   2.0000     -10.320761      -280.8422
  28   2.0000     -10.320739      -280.8416
  29   2.0000     -10.319084      -280.7965
  30   2.0000     -10.318544      -280.7819
  31   2.0000     -10.318262      -280.7742
  32   2.0000     -10.318094      -280.7696
  33   2.0000     -10.316934      -280.7380
  34   2.0000     -10.316348      -280.7221
  35   2.0000     -10.315671      -280.7037
  36   2.0000     -10.314811      -280.6803
  37   2.0000     -10.314483      -280.6714
  38   2.0000     -10.314459      -280.6707
  39   2.0000     -10.310847      -280.5724
  40   2.0000     -10.310775      -280.5704
  41   2.0000     -10.295621      -280.1581
  42   2.0000     -10.295167      -280.1457
  43   2.0000     -10.294425      -280.1255
  44   2.0000     -10.293759      -280.1074
  45   2.0000     -10.291583      -280.0482
  46   2.0000     -10.290301      -280.0133
  47   2.0000     -10.285227      -279.8752
  48   2.0000     -10.284672      -279.8601
  49   2.0000     -10.284640      -279.8593
  50   2.0000     -10.284350      -279.8514
  51   2.0000     -10.284237      -279.8483
  52   2.0000     -10.283855      -279.8379
  53   2.0000     -10.283820      -279.8370
  54   2.0000     -10.283746      -279.8350
  55   2.0000     -10.270996      -279.4880
  56   2.0000     -10.270189      -279.4660
  57   2.0000     -10.269477      -279.4467
  58   2.0000     -10.269099      -279.4364
  59   2.0000     -10.267507      -279.3931
  60   2.0000     -10.267420      -279.3907
  61   2.0000      -8.080567      -219.8834
  62   2.0000      -8.080428      -219.8796
  63   2.0000      -8.067452      -219.5265
  64   2.0000      -8.067201      -219.5197
  65   2.0000      -8.066035      -219.4880
  66   2.0000      -8.064601      -219.4489
  67   2.0000      -8.061352      -219.3605
  68   2.0000      -6.050519      -164.6430
  69   2.0000      -6.050365      -164.6388
  70   2.0000      -6.046409      -164.5312
  71   2.0000      -6.046280      -164.5277
  72   2.0000      -6.041057      -164.3855
  73   2.0000      -6.040928      -164.3820
  74   2.0000      -6.036673      -164.2662
  75   2.0000      -6.036452      -164.2602
  76   2.0000      -6.035553      -164.2357
  77   2.0000      -6.034068      -164.1953
  78   2.0000      -6.032641      -164.1565
  79   2.0000      -6.032508      -164.1529
  80   2.0000      -6.031058      -164.1134
  81   2.0000      -6.030767      -164.1055
  82   2.0000      -6.029822      -164.0798
  83   2.0000      -6.029514      -164.0714
  84   2.0000      -6.029197      -164.0628
  85   2.0000      -6.028259      -164.0373
  86   2.0000      -6.026639      -163.9932
  87   2.0000      -6.026620      -163.9927
  88   2.0000      -6.023167      -163.8987
  89   2.0000      -1.165493       -31.7147
  90   2.0000      -1.165476       -31.7142
  91   2.0000      -1.096034       -29.8246
  92   2.0000      -1.095967       -29.8228
  93   2.0000      -1.015320       -27.6283
  94   2.0000      -1.012153       -27.5421
  95   2.0000      -1.004002       -27.3203
  96   2.0000      -1.003971       -27.3194
  97   2.0000      -1.002956       -27.2918
  98   2.0000      -0.991711       -26.9858
  99   2.0000      -0.987590       -26.8737
 100   2.0000      -0.987451       -26.8699
 101   2.0000      -0.977407       -26.5966
 102   2.0000      -0.964784       -26.2531
 103   2.0000      -0.963913       -26.2294
 104   2.0000      -0.928188       -25.2573
 105   2.0000      -0.927767       -25.2458
 106   2.0000      -0.907257       -24.6877
 107   2.0000      -0.904317       -24.6077
 108   2.0000      -0.898157       -24.4401
 109   2.0000      -0.894879       -24.3509
 110   2.0000      -0.888891       -24.1879
 111   2.0000      -0.881076       -23.9753
 112   2.0000      -0.875905       -23.8346
 113   2.0000      -0.860476       -23.4147
 114   2.0000      -0.851648       -23.1745
 115   2.0000      -0.847523       -23.0623
 116   2.0000      -0.842007       -22.9122
 117   2.0000      -0.836265       -22.7559
 118   2.0000      -0.827000       -22.5038
 119   2.0000      -0.823016       -22.3954
 120   2.0000      -0.818400       -22.2698
 121   2.0000      -0.815611       -22.1939
 122   2.0000      -0.807205       -21.9652
 123   2.0000      -0.794302       -21.6141
 124   2.0000      -0.782010       -21.2796
 125   2.0000      -0.773562       -21.0497
 126   2.0000      -0.755394       -20.5553
 127   2.0000      -0.754648       -20.5350
 128   2.0000      -0.737112       -20.0578
 129   2.0000      -0.733135       -19.9496
 130   2.0000      -0.729141       -19.8409
 131   2.0000      -0.727123       -19.7860
 132   2.0000      -0.724220       -19.7070
 133   2.0000      -0.703586       -19.1456
 134   2.0000      -0.698022       -18.9941
 135   2.0000      -0.696820       -18.9614
 136   2.0000      -0.681295       -18.5390
 137   2.0000      -0.677057       -18.4236
 138   2.0000      -0.659568       -17.9478
 139   2.0000      -0.654771       -17.8172
 140   2.0000      -0.651134       -17.7182
 141   2.0000      -0.643447       -17.5091
 142   2.0000      -0.639378       -17.3984
 143   2.0000      -0.639290       -17.3960
 144   2.0000      -0.636835       -17.3291
 145   2.0000      -0.631850       -17.1935
 146   2.0000      -0.625088       -17.0095
 147   2.0000      -0.618060       -16.8183
 148   2.0000      -0.616343       -16.7715
 149   2.0000      -0.605030       -16.4637
 150   2.0000      -0.594141       -16.1674
 151   2.0000      -0.592669       -16.1274
 152   2.0000      -0.583329       -15.8732
 153   2.0000      -0.582246       -15.8437
 154   2.0000      -0.574613       -15.6360
 155   2.0000      -0.573871       -15.6158
 156   2.0000      -0.565760       -15.3951
 157   2.0000      -0.554105       -15.0780
 158   2.0000      -0.552674       -15.0390
 159   2.0000      -0.551487       -15.0067
 160   2.0000      -0.549487       -14.9523
 161   2.0000      -0.548656       -14.9297
 162   2.0000      -0.545402       -14.8411
 163   2.0000      -0.539545       -14.6818
 164   2.0000      -0.537343       -14.6218
 165   2.0000      -0.533477       -14.5167
 166   2.0000      -0.532931       -14.5018
 167   2.0000      -0.525778       -14.3071
 168   2.0000      -0.522726       -14.2241
 169   2.0000      -0.517758       -14.0889
 170   2.0000      -0.516307       -14.0494
 171   2.0000      -0.515173       -14.0186
 172   2.0000      -0.507484       -13.8093
 173   2.0000      -0.505235       -13.7481
 174   2.0000      -0.504052       -13.7159
 175   2.0000      -0.502432       -13.6719
 176   2.0000      -0.500706       -13.6249
 177   2.0000      -0.498728       -13.5711
 178   2.0000      -0.496444       -13.5089
 179   2.0000      -0.495439       -13.4816
 180   2.0000      -0.492395       -13.3987
 181   2.0000      -0.491097       -13.3634
 182   2.0000      -0.487100       -13.2547
 183   2.0000      -0.485381       -13.2079
 184   2.0000      -0.484020       -13.1708
 185   2.0000      -0.482985       -13.1427
 186   2.0000      -0.476269       -12.9599
 187   2.0000      -0.468762       -12.7557
 188   2.0000      -0.468323       -12.7437
 189   2.0000      -0.465606       -12.6698
 190   2.0000      -0.462723       -12.5913
 191   2.0000      -0.461844       -12.5674
 192   2.0000      -0.460694       -12.5361
 193   2.0000      -0.459613       -12.5067
 194   2.0000      -0.459087       -12.4924
 195   2.0000      -0.455816       -12.4034
 196   2.0000      -0.450984       -12.2719
 197   2.0000      -0.449863       -12.2414
 198   2.0000      -0.445618       -12.1259
 199   2.0000      -0.444942       -12.1075
 200   2.0000      -0.444045       -12.0831
 201   2.0000      -0.442619       -12.0443
 202   2.0000      -0.442363       -12.0373
 203   2.0000      -0.440054       -11.9745
 204   2.0000      -0.439799       -11.9676
 205   2.0000      -0.438823       -11.9410
 206   2.0000      -0.437973       -11.9179
 207   2.0000      -0.437484       -11.9045
 208   2.0000      -0.437249       -11.8981
 209   2.0000      -0.436560       -11.8794
 210   2.0000      -0.436270       -11.8715
 211   2.0000      -0.434818       -11.8320
 212   2.0000      -0.430413       -11.7121
 213   2.0000      -0.423643       -11.5279
 214   2.0000      -0.422754       -11.5037
 215   2.0000      -0.421625       -11.4730
 216   2.0000      -0.418879       -11.3983
 217   2.0000      -0.418410       -11.3855
 218   2.0000      -0.418302       -11.3826
 219   2.0000      -0.416419       -11.3313
 220   2.0000      -0.413874       -11.2621
 221   2.0000      -0.412050       -11.2125
 222   2.0000      -0.407244       -11.0817
 223   2.0000      -0.405655       -11.0384
 224   2.0000      -0.405510       -11.0345
 225   2.0000      -0.402262       -10.9461
 226   2.0000      -0.388275       -10.5655
 227   2.0000      -0.369209       -10.0467
 228   2.0000      -0.368958       -10.0399
 229   2.0000      -0.366183        -9.9643
 230   2.0000      -0.349650        -9.5145
 231   2.0000      -0.337014        -9.1706
 232   2.0000      -0.335694        -9.1347
 233   2.0000      -0.335539        -9.1305
 234   2.0000      -0.331550        -9.0219
 235   2.0000      -0.329386        -8.9630
 236   2.0000      -0.326238        -8.8774
 237   2.0000      -0.317051        -8.6274
 238   2.0000      -0.304718        -8.2918
 239   2.0000      -0.287595        -7.8258
 240   2.0000      -0.264381        -7.1942
 241   2.0000      -0.234809        -6.3895
 242   0.0000      -0.086745        -2.3605
 243   0.0000      -0.077574        -2.1109
 244   0.0000      -0.044079        -1.1994
 245   0.0000      -0.024054        -0.6545
 246   0.0000      -0.008191        -0.2229

MULLIKEN ATOMIC CHARGES
-----------------------
   0 C :    0.212708
   1 C :   -0.142228
   2 S :    0.100118
   3 C :    0.155562
   4 N :   -0.222273
   5 C :    0.085868
   6 C :    0.006762
   7 C :   -0.302188
   8 C :   -0.190285
   9 C :   -0.217034
  10 N :    0.166125
  11 N :    0.139448
  12 O :   -0.183719
  13 C :    0.067453
  14 C :   -0.074029
  15 C :   -0.050009
  16 C :   -0.042991
  17 C :   -0.082129
  18 S :    0.146996
  19 C :    0.040701
  20 C :    0.017257
  21 C :   -0.043163
  22 S :    0.118125
  23 C :   -0.058776
  24 C :   -0.058713
  25 C :   -0.069475
  26 C :    0.034981
  27 C :    0.038263
  28 C :   -0.062900
  29 C :    0.001746
  30 C :    0.001684
  31 C :   -0.066602
  32 S :    0.063916
  33 C :   -0.046542
  34 S :    0.095465
  35 C :   -0.036422
  36 C :   -0.083294
  37 C :   -0.043879
  38 C :    0.034835
  39 C :    0.036505
  40 C :   -0.066366
  41 C :   -0.062990
  42 C :   -0.052810
  43 C :   -0.063102
  44 S :    0.132273
  45 C :    0.026512
  46 C :    0.034101
  47 C :    0.063729
  48 C :    0.212492
  49 C :   -0.139267
  50 S :    0.102265
  51 C :    0.153449
  52 N :   -0.221389
  53 C :    0.086440
  54 C :    0.005976
  55 C :   -0.301873
  56 C :   -0.189782
  57 C :   -0.219201
  58 N :    0.167224
  59 N :    0.140955
  60 O :   -0.185700
  61 H :    0.049079
  62 H :    0.055706
  63 H :    0.026499
  64 H :    0.037118
  65 H :    0.035729
  66 H :    0.022414
  67 H :   -0.003112
  68 H :    0.024267
  69 H :    0.037061
  70 H :    0.023326
  71 H :    0.018457
  72 H :    0.030065
  73 H :   -0.029049
  74 H :    0.027856
  75 H :    0.030054
  76 H :    0.018256
  77 H :    0.015659
  78 H :    0.020855
  79 H :   -0.005518
  80 H :   -0.009172
  81 H :   -0.009864
  82 H :    0.029153
  83 H :    0.030442
  84 H :    0.020751
  85 H :    0.015083
  86 H :    0.019950
  87 H :   -0.001229
  88 H :    0.031654
  89 H :    0.032045
  90 H :    0.024289
  91 H :    0.020070
  92 H :    0.025348
  93 H :    0.022408
  94 H :    0.048968
  95 H :    0.055458
  96 H :    0.025283
  97 H :    0.037613
  98 H :    0.036222
Sum of atomic charges:   -0.0000000

LOEWDIN ATOMIC CHARGES
----------------------
   0 C :    0.070459
   1 C :   -0.224537
   2 S :    0.428016
   3 C :   -0.025152
   4 N :   -0.001670
   5 C :    0.043032
   6 C :   -0.054535
   7 C :   -0.214152
   8 C :   -0.032589
   9 C :   -0.041393
  10 N :   -0.061251
  11 N :   -0.055531
  12 O :   -0.172456
  13 C :    0.002648
  14 C :   -0.191045
  15 C :   -0.041891
  16 C :   -0.051357
  17 C :   -0.172217
  18 S :    0.444966
  19 C :   -0.033089
  20 C :   -0.051316
  21 C :   -0.187773
  22 S :    0.429952
  23 C :   -0.178618
  24 C :   -0.057707
  25 C :   -0.052847
  26 C :   -0.045537
  27 C :   -0.051033
  28 C :   -0.189688
  29 C :   -0.059357
  30 C :   -0.061285
  31 C :   -0.187958
  32 S :    0.477654
  33 C :   -0.184747
  34 S :    0.460567
  35 C :   -0.187607
  36 C :   -0.061562
  37 C :   -0.052659
  38 C :   -0.045454
  39 C :   -0.050533
  40 C :   -0.164370
  41 C :   -0.055435
  42 C :   -0.041907
  43 C :   -0.189382
  44 S :    0.450535
  45 C :   -0.045267
  46 C :   -0.050423
  47 C :    0.001423
  48 C :    0.070347
  49 C :   -0.224838
  50 S :    0.428223
  51 C :   -0.025258
  52 N :   -0.001525
  53 C :    0.042848
  54 C :   -0.054607
  55 C :   -0.213958
  56 C :   -0.032411
  57 C :   -0.041627
  58 N :   -0.061248
  59 N :   -0.054915
  60 O :   -0.173456
  61 H :    0.039494
  62 H :    0.036519
  63 H :    0.029755
  64 H :    0.039079
  65 H :    0.028958
  66 H :    0.049464
  67 H :    0.018496
  68 H :    0.034025
  69 H :    0.034913
  70 H :    0.027740
  71 H :    0.030525
  72 H :    0.026614
  73 H :    0.028142
  74 H :    0.027068
  75 H :    0.028475
  76 H :    0.025431
  77 H :    0.029662
  78 H :    0.024737
  79 H :    0.027114
  80 H :    0.025877
  81 H :    0.022882
  82 H :    0.028075
  83 H :    0.028360
  84 H :    0.026058
  85 H :    0.029255
  86 H :    0.025341
  87 H :    0.019058
  88 H :    0.028920
  89 H :    0.029380
  90 H :    0.027533
  91 H :    0.031699
  92 H :    0.027090
  93 H :    0.049208
  94 H :    0.039384
  95 H :    0.036433
  96 H :    0.029490
  97 H :    0.039199
  98 H :    0.029051

  Mayer bond orders larger than 0.100000
B(  0-C ,  1-C ) :   0.9771 B(  0-C ,  4-N ) :   1.0372 B(  0-C , 12-O ) :   2.1464
B(  1-C ,  2-S ) :   0.9916 B(  1-C , 13-C ) :   1.7113 B(  2-S ,  3-C ) :   1.0745
B(  3-C ,  4-N ) :   1.2110 B(  3-C ,  7-C ) :   1.5606 B(  4-N ,  5-C ) :   0.9100
B(  5-C ,  6-C ) :   1.1221 B(  5-C , 61-H ) :   0.9256 B(  5-C , 62-H ) :   0.9419
B(  6-C , 63-H ) :   0.9642 B(  6-C , 64-H ) :   0.9674 B(  6-C , 65-H ) :   0.9670
B(  7-C ,  8-C ) :   1.1709 B(  7-C ,  9-C ) :   1.1426 B(  8-C , 10-N ) :   2.9865
B(  9-C , 11-N ) :   3.0312 B( 13-C , 14-C ) :   1.1411 B( 13-C , 66-H ) :   0.9475
B( 14-C , 15-C ) :   1.4233 B( 14-C , 17-C ) :   0.1040 B( 14-C , 18-S ) :   1.1003
B( 15-C , 16-C ) :   1.3288 B( 15-C , 67-H ) :   0.9774 B( 16-C , 17-C ) :   1.5121
B( 16-C , 19-C ) :   1.0579 B( 17-C , 18-S ) :   1.1448 B( 17-C , 21-C ) :   1.1103
B( 19-C , 20-C ) :   1.1212 B( 19-C , 68-H ) :   0.9217 B( 19-C , 69-H ) :   0.9084
B( 20-C , 70-H ) :   0.9701 B( 20-C , 71-H ) :   0.9600 B( 20-C , 72-H ) :   0.9563
B( 21-C , 22-S ) :   1.1119 B( 21-C , 23-C ) :   0.1051 B( 21-C , 25-C ) :   1.4736
B( 22-S , 23-C ) :   1.1192 B( 23-C , 24-C ) :   1.5173 B( 23-C , 28-C ) :   1.1458
B( 24-C , 25-C ) :   1.2739 B( 24-C , 26-C ) :   1.0564 B( 25-C , 73-H ) :   0.9930
B( 26-C , 27-C ) :   1.1299 B( 26-C , 74-H ) :   0.9133 B( 26-C , 75-H ) :   0.9123
B( 27-C , 76-H ) :   0.9631 B( 27-C , 77-H ) :   0.9588 B( 27-C , 78-H ) :   0.9577
B( 28-C , 29-C ) :   1.4754 B( 28-C , 32-S ) :   1.1065 B( 29-C , 30-C ) :   1.2987
B( 29-C , 79-H ) :   0.9897 B( 30-C , 31-C ) :   1.4750 B( 30-C , 80-H ) :   0.9889
B( 31-C , 32-S ) :   1.1058 B( 31-C , 33-C ) :   1.1493 B( 33-C , 34-S ) :   1.1078
B( 33-C , 37-C ) :   1.4986 B( 34-S , 35-C ) :   1.1129 B( 35-C , 36-C ) :   1.4453
B( 35-C , 40-C ) :   1.1532 B( 36-C , 37-C ) :   1.3076 B( 36-C , 81-H ) :   0.9875
B( 37-C , 38-C ) :   1.0562 B( 38-C , 39-C ) :   1.1290 B( 38-C , 82-H ) :   0.9129
B( 38-C , 83-H ) :   0.9121 B( 39-C , 84-H ) :   0.9623 B( 39-C , 85-H ) :   0.9598
B( 39-C , 86-H ) :   0.9601 B( 40-C , 41-C ) :   1.4793 B( 40-C , 44-S ) :   1.1471
B( 41-C , 42-C ) :   1.3375 B( 41-C , 45-C ) :   1.0513 B( 42-C , 43-C ) :   1.4180
B( 42-C , 87-H ) :   0.9752 B( 43-C , 44-S ) :   1.0974 B( 43-C , 47-C ) :   1.1426
B( 45-C , 46-C ) :   1.1321 B( 45-C , 88-H ) :   0.9138 B( 45-C , 89-H ) :   0.9130
B( 46-C , 90-H ) :   0.9619 B( 46-C , 91-H ) :   0.9584 B( 46-C , 92-H ) :   0.9591
B( 47-C , 49-C ) :   1.7070 B( 47-C , 93-H ) :   0.9469 B( 48-C , 49-C ) :   0.9782
B( 48-C , 52-N ) :   1.0362 B( 48-C , 60-O ) :   2.1445 B( 49-C , 50-S ) :   0.9915
B( 50-S , 51-C ) :   1.0749 B( 51-C , 52-N ) :   1.2120 B( 51-C , 55-C ) :   1.5600
B( 52-N , 53-C ) :   0.9105 B( 53-C , 54-C ) :   1.1220 B( 53-C , 94-H ) :   0.9249
B( 53-C , 95-H ) :   0.9421 B( 54-C , 96-H ) :   0.9641 B( 54-C , 97-H ) :   0.9676
B( 54-C , 98-H ) :   0.9669 B( 55-C , 56-C ) :   1.1719 B( 55-C , 57-C ) :   1.1425
B( 56-C , 58-N ) :   2.9864 B( 57-C , 59-N ) :   3.0325

-----------------------------------------------------------------------------
         ABSORPTION SPECTRUM VIA TRANSITION ELECTRIC DIPOLE MOMENTS
-----------------------------------------------------------------------------
State   Energy  Wavelength   fosc         T2         TX        TY        TZ
        (cm-1)    (nm)                  (au**2)     (au)      (au)      (au)
-----------------------------------------------------------------------------
   0   18177.2    550.1   2.966517158  53.72747  -5.86978   3.73076  -2.31399
   1   21577.3    463.4   0.142143162   2.16872  -0.54279  -1.26186   0.53085
   2   26494.8    377.4   0.067749823   0.84183  -0.37012  -0.81264   0.21084
   3   27753.3    360.3   0.095340377   1.13094  -0.78260   0.37572  -0.61426
   4   29011.9    344.7   0.660411199   7.49401   2.47595  -0.85198   0.79862
   5   32683.0    306.0   0.098600057   0.99319  -0.37849  -0.91930  -0.06943
   6   32817.5    304.7   0.011769029   0.11806   0.31736  -0.10869  -0.07439
   7   32992.5    303.1   0.013572914   0.13544  -0.21077   0.28653   0.09440
   8   35596.4    280.9   0.081724575   0.75583   0.60310   0.61977  -0.08934
   9   35837.5    279.0   0.009775784   0.08980  -0.04030   0.28452   0.08502
  10   36973.5    270.5   0.011066595   0.09854   0.22385  -0.07796  -0.20579
  11   37435.0    267.1   0.167373227   1.47192  -1.06412  -0.58067   0.04886
  12   37971.5    263.4   0.050663129   0.43925  -0.07796  -0.65488   0.06557
  13   38480.4    259.9   0.018982972   0.16241  -0.04249  -0.39764   0.04979
  14   38760.6    258.0   0.067111663   0.57001  -0.73784  -0.01446  -0.15935
  15   39160.3    255.4   0.095680414   0.80436   0.45134   0.76381   0.13132
  16   39775.2    251.4   0.099808314   0.82610  -0.73628  -0.49696   0.19239
  17   39845.3    251.0   0.042529300   0.35139   0.58305   0.10334  -0.02767

FINAL SINGLE POINT ENERGY     -5038.330254655851

DIPOLE MOMENT
-------------
                                X             Y             Z
Electronic contribution:     17.23560      22.35316       0.14602
Nuclear contribution   :    -18.02133     -24.60633      -0.20709
                        -----------------------------------------
Total Dipole Moment    :     -0.78572      -2.25316      -0.06106
                        -----------------------------------------
Magnitude (a.u.)       :      2.38701
Magnitude (Debye)      :      6.06731

Rotational constants in cm-1:     0.003499     0.000189     0.000181
Rotational constants in MHz :   104.887048     5.675624     5.436650

                             ****ORCA TERMINATED NORMALLY****
TOTAL RUN TIME: 0 days 0 hours 8 minutes 0 seconds 77 msec
