                         Program Version 4.2.0 -  RELEASE  -
|  1> # ORCA input file
|  2> # SCF done       -231.799071329063          0.000531667919
|  3> ! CAM-B3LYP def2-SVP def2/J RIJCOSX Grid4 TightSCF
|  4> %maxcore 5000
|  5> %tddft
|  6>     Mode sTDDFT
|  7>     Ethresh 5.0
|  8>     maxcore 5000
|  9> end
| 10>
| 11> %pal
| 12>   nprocs 6
| 13>   end
| 14> * xyz 0 1
| 15>    C        0.77836         0.71348         0.50121
| 16>    C        0.98563        -0.68332         0.53156
| 17>    C       -0.05792        -1.58993         0.56554
| 18>    C       -1.35605        -1.05752         0.60362
| 19>    C       -1.57442         0.34807         0.55536
| 20>    C       -0.52576         1.25514         0.48922
| 21>    C       -2.56266        -1.78880         0.72957
| 22>    C       -3.68137        -1.01129         0.77488
| 23>    S       -3.29617         0.69024         0.64283
| 24>    C        1.99652         1.43140         0.48995
| 25>    C        3.10190         0.62931         0.51807
| 26>    S        2.67972        -1.07698         0.54199
| 27>    O       -0.56970         2.60322         0.42363
| 28>    O        0.18218        -2.94123         0.62519
| 29>    C       -5.03154        -1.42861         0.94172
| 30>    C        4.46574         1.03051         0.55118
| 31>    C        5.58593         0.22565         0.60281
| 32>    C        6.77692         0.94315         0.65757
| 33>    C        6.59292         2.31262         0.64728
| 34>    S        4.89903         2.70860         0.56133
| 35>    S       -5.44351        -3.11337         1.04370
| 36>    C       -7.12271        -2.72485         1.28739
| 37>    C       -7.32258        -1.35989         1.26836
| 38>    C       -6.14964        -0.63351         1.07026
| 39>    C       -8.06532        -3.78212         1.49262
| 40>    C        7.61219         3.31103         0.71867
| 41>    C        8.98658         2.98345         0.84643
| 42>    C        9.99265         3.98645         0.94873
| 43>    C        9.71647         5.37440         0.92982
| 44>    C        8.36469         5.66394         0.78843
| 45>    C        7.37073         4.68111         0.68990
| 46>    C       -9.39611        -3.62105         1.85682
| 47>    C      -10.27067        -4.69323         2.08171
| 48>    C       -9.91795        -6.03245         1.96324
| 49>    C       -8.56750        -6.23077         1.58040
| 50>    C       -7.68155        -5.13767         1.35767
| 51>    N        9.61082         1.79777         0.90276
| 52>    N       10.87339         2.09582         1.02445
| 53>    N       11.17091         3.36400         1.05977
| 54>    N       -7.86617        -7.35277         1.36130
| 55>    N       -6.67420        -6.93650         1.03537
| 56>    N       -6.49381        -5.64728         1.01349
| 57>    C       10.77095         6.33417         1.06635
| 58>    F        7.94223         6.94016         0.74879
| 59>    F        6.10463         5.12607         0.56616
| 60>    C       11.88333         1.08506         1.15628
| 61>    C       12.35133         0.99127         2.60489
| 62>    F      -11.52641        -4.37001         2.44865
| 63>    F       -9.91011        -2.38886         2.03118
| 64>    C       -5.60643        -7.84984         0.74306
| 65>    C       -4.54947        -7.79735         1.84063
| 66>    C      -10.81127        -7.12353         2.21301
| 67>    C       10.70589         7.71815         1.05315
| 68>    C       11.93787         8.33208         1.23752
| 69>    C       12.98025         7.43290         1.39758
| 70>    S       12.39634         5.79011         1.30603
| 71>    S      -12.46003        -6.88074         2.69271
| 72>    C      -12.73263        -8.59113         2.78745
| 73>    C      -11.58492        -9.28984         2.45424
| 74>    C      -10.50914        -8.47058         2.13276
| 75>    C       14.35869         7.65110         1.61953
| 76>    C       15.01744         8.83670         1.74443
| 77>    C       14.42213        10.10682         1.66737
| 78>    C       16.48078         8.80039         1.99137
| 79>    O       16.98975        10.03144         2.07747
| 80>    O       17.12058         7.78123         2.09154
| 81>    C       18.38733        10.14284         2.34160
| 82>    C       18.67762        10.04603         3.83253
| 83>    C      -13.97326        -9.17588         3.16116
| 84>    C      -15.11609        -8.52552         3.47494
| 85>    C      -15.27145        -7.02780         3.45055
| 86>    C      -16.28247        -9.22380         3.82584
| 87>    O      -14.76212        -6.49224         4.55562
| 88>    O      -15.79156        -6.42559         2.55200
| 89>    C      -14.82255        -5.06619         4.67523
| 90>    C      -16.18420        -4.60937         5.17440
| 91>    N       13.95326        11.15372         1.60935
| 92>    N      -17.23850        -9.78297         4.12859
| 93>    C       -1.80151         3.29701         0.35468
| 94>    C       -1.47653         4.77443         0.20084
| 95>    C       -0.07778        -3.66050        -0.57255
| 96>    C        0.89677        -3.30950        -1.69033
| 97>    H       -2.59824        -2.85950         0.82428
| 98>    H        2.04358         2.50509         0.47226
| 99>    H        5.52400        -0.84811         0.60514
|100>    H        7.75474         0.50193         0.70735
|101>    H       -8.28506        -0.90011         1.39187
|102>    H       -6.10607         0.44059         1.02908
|103>    H       12.71955         1.35798         0.50874
|104>    H       11.44172         0.14441         0.82398
|105>    H       12.75026         1.94977         2.92688
|106>    H       13.12919         0.23862         2.69250
|107>    H       11.52358         0.71693         3.25435
|108>    H       -5.16554        -7.56342        -0.21509
|109>    H       -6.05046        -8.84330         0.66591
|110>    H       -4.16274        -6.78560         1.93087
|111>    H       -3.73133        -8.46857         1.59715
|112>    H       -4.97618        -8.09750         2.79449
|113>    H        9.79219         8.26507         0.91462
|114>    H       12.07453         9.39758         1.25670
|115>    H      -11.54255       -10.36466         2.44857
|116>    H       -9.53381        -8.81945         1.84951
|117>    H       14.97888         6.76597         1.70877
|118>    H       18.67054        11.12074         1.94748
|119>    H       18.91572         9.35167         1.79904
|120>    H       18.10799        10.79758         4.37387
|121>    H       19.73733        10.20657         4.00851
|122>    H       18.40432         9.06044         4.20186
|123>    H      -13.98234       -10.25988         3.18240
|124>    H      -14.59992        -4.62283         3.69964
|125>    H      -14.03266        -4.81417         5.38496
|126>    H      -16.95255        -4.86279         4.44808
|127>    H      -16.17554        -3.53250         5.31552
|128>    H      -16.42006        -5.09105         6.12050
|129>    H       -2.38253         3.12994         1.27003
|130>    H       -2.38639         2.94568        -0.50434
|131>    H       -0.89194         5.11624         1.05028
|132>    H       -2.39627         5.34862         0.14493
|133>    H       -0.89821         4.93547        -0.70470
|134>    H       -1.10797        -3.48425        -0.90923
|135>    H        0.02935        -4.70932        -0.28641
|136>    H        0.77115        -2.27135        -1.99129
|137>    H        0.71285        -3.94793        -2.55001
|138>    H        1.91989        -3.45112        -1.35185
|139> *
|140>
|141>                          ****END OF INPUT****

CARTESIAN COORDINATES (ANGSTROEM)
---------------------------------
  C      0.778360    0.713480    0.501210
  C      0.985630   -0.683320    0.531560
  C     -0.057920   -1.589930    0.565540
  C     -1.356050   -1.057520    0.603620
  C     -1.574420    0.348070    0.555360
  C     -0.525760    1.255140    0.489220
  C     -2.562660   -1.788800    0.729570
  C     -3.681370   -1.011290    0.774880
  S     -3.296170    0.690240    0.642830
  C      1.996520    1.431400    0.489950
  C      3.101900    0.629310    0.518070
  S      2.679720   -1.076980    0.541990
  O     -0.569700    2.603220    0.423630
  O      0.182180   -2.941230    0.625190
  C     -5.031540   -1.428610    0.941720
  C      4.465740    1.030510    0.551180
  C      5.585930    0.225650    0.602810
  C      6.776920    0.943150    0.657570
  C      6.592920    2.312620    0.647280
  S      4.899030    2.708600    0.561330
  S     -5.443510   -3.113370    1.043700
  C     -7.122710   -2.724850    1.287390
  C     -7.322580   -1.359890    1.268360
  C     -6.149640   -0.633510    1.070260
  C     -8.065320   -3.782120    1.492620
  C      7.612190    3.311030    0.718670
  C      8.986580    2.983450    0.846430
  C      9.992650    3.986450    0.948730
  C      9.716470    5.374400    0.929820
  C      8.364690    5.663940    0.788430
  C      7.370730    4.681110    0.689900
  C     -9.396110   -3.621050    1.856820
  C    -10.270670   -4.693230    2.081710
  C     -9.917950   -6.032450    1.963240
  C     -8.567500   -6.230770    1.580400
  C     -7.681550   -5.137670    1.357670
  N      9.610820    1.797770    0.902760
  N     10.873390    2.095820    1.024450
  N     11.170910    3.364000    1.059770
  N     -7.866170   -7.352770    1.361300
  N     -6.674200   -6.936500    1.035370
  N     -6.493810   -5.647280    1.013490
  C     10.770950    6.334170    1.066350
  F      7.942230    6.940160    0.748790
  F      6.104630    5.126070    0.566160
  C     11.883330    1.085060    1.156280
  C     12.351330    0.991270    2.604890
  F    -11.526410   -4.370010    2.448650
  F     -9.910110   -2.388860    2.031180
  C     -5.606430   -7.849840    0.743060
  C     -4.549470   -7.797350    1.840630
  C    -10.811270   -7.123530    2.213010
  C     10.705890    7.718150    1.053150
  C     11.937870    8.332080    1.237520
  C     12.980250    7.432900    1.397580
  S     12.396340    5.790110    1.306030
  S    -12.460030   -6.880740    2.692710
  C    -12.732630   -8.591130    2.787450
  C    -11.584920   -9.289840    2.454240
  C    -10.509140   -8.470580    2.132760
  C     14.358690    7.651100    1.619530
  C     15.017440    8.836700    1.744430
  C     14.422130   10.106820    1.667370
  C     16.480780    8.800390    1.991370
  O     16.989750   10.031440    2.077470
  O     17.120580    7.781230    2.091540
  C     18.387330   10.142840    2.341600
  C     18.677620   10.046030    3.832530
  C    -13.973260   -9.175880    3.161160
  C    -15.116090   -8.525520    3.474940
  C    -15.271450   -7.027800    3.450550
  C    -16.282470   -9.223800    3.825840
  O    -14.762120   -6.492240    4.555620
  O    -15.791560   -6.425590    2.552000
  C    -14.822550   -5.066190    4.675230
  C    -16.184200   -4.609370    5.174400
  N     13.953260   11.153720    1.609350
  N    -17.238500   -9.782970    4.128590
  C     -1.801510    3.297010    0.354680
  C     -1.476530    4.774430    0.200840
  C     -0.077780   -3.660500   -0.572550
  C      0.896770   -3.309500   -1.690330
  H     -2.598240   -2.859500    0.824280
  H      2.043580    2.505090    0.472260
  H      5.524000   -0.848110    0.605140
  H      7.754740    0.501930    0.707350
  H     -8.285060   -0.900110    1.391870
  H     -6.106070    0.440590    1.029080
  H     12.719550    1.357980    0.508740
  H     11.441720    0.144410    0.823980
  H     12.750260    1.949770    2.926880
  H     13.129190    0.238620    2.692500
  H     11.523580    0.716930    3.254350
  H     -5.165540   -7.563420   -0.215090
  H     -6.050460   -8.843300    0.665910
  H     -4.162740   -6.785600    1.930870
  H     -3.731330   -8.468570    1.597150
  H     -4.976180   -8.097500    2.794490
  H      9.792190    8.265070    0.914620
  H     12.074530    9.397580    1.256700
  H    -11.542550  -10.364660    2.448570
  H     -9.533810   -8.819450    1.849510
  H     14.978880    6.765970    1.708770
  H     18.670540   11.120740    1.947480
  H     18.915720    9.351670    1.799040
  H     18.107990   10.797580    4.373870
  H     19.737330   10.206570    4.008510
  H     18.404320    9.060440    4.201860
  H    -13.982340  -10.259880    3.182400
  H    -14.599920   -4.622830    3.699640
  H    -14.032660   -4.814170    5.384960
  H    -16.952550   -4.862790    4.448080
  H    -16.175540   -3.532500    5.315520
  H    -16.420060   -5.091050    6.120500
  H     -2.382530    3.129940    1.270030
  H     -2.386390    2.945680   -0.504340
  H     -0.891940    5.116240    1.050280
  H     -2.396270    5.348620    0.144930
  H     -0.898210    4.935470   -0.704700
  H     -1.107970   -3.484250   -0.909230
  H      0.029350   -4.709320   -0.286410
  H      0.771150   -2.271350   -1.991290
  H      0.712850   -3.947930   -2.550010
  H      1.919890   -3.451120   -1.351850

 Total Charge           Charge          ....    0
 Multiplicity           Mult            ....    1
 Number of Electrons    NEL             ....  626
 Basis Dimension        Dim             .... 1382

ORBITAL ENERGIES
----------------

  NO   OCC          E(Eh)            E(eV)
   0   2.0000     -88.964245     -2420.8402
   1   2.0000     -88.961160     -2420.7562
   2   2.0000     -88.958069     -2420.6721
   3   2.0000     -88.955049     -2420.5899
   4   2.0000     -88.951886     -2420.5039
   5   2.0000     -88.946924     -2420.3689
   6   2.0000     -24.806048      -675.0069
   7   2.0000     -24.801289      -674.8774
   8   2.0000     -24.801284      -674.8772
   9   2.0000     -24.799479      -674.8281
  10   2.0000     -19.263221      -524.1789
  11   2.0000     -19.254698      -523.9470
  12   2.0000     -19.249466      -523.8046
  13   2.0000     -19.231481      -523.3152
  14   2.0000     -19.210821      -522.7530
  15   2.0000     -19.198325      -522.4130
  16   2.0000     -14.553620      -396.0241
  17   2.0000     -14.551221      -395.9589
  18   2.0000     -14.458948      -393.4480
  19   2.0000     -14.457741      -393.4151
  20   2.0000     -14.457087      -393.3973
  21   2.0000     -14.455008      -393.3408
  22   2.0000     -14.397003      -391.7624
  23   2.0000     -14.394722      -391.7003
  24   2.0000     -10.408735      -283.2361
  25   2.0000     -10.399789      -282.9926
  26   2.0000     -10.382160      -282.5129
  27   2.0000     -10.381666      -282.4995
  28   2.0000     -10.380230      -282.4604
  29   2.0000     -10.375871      -282.3418
  30   2.0000     -10.341823      -281.4153
  31   2.0000     -10.334794      -281.2241
  32   2.0000     -10.332105      -281.1509
  33   2.0000     -10.327253      -281.0188
  34   2.0000     -10.323660      -280.9211
  35   2.0000     -10.322885      -280.9000
  36   2.0000     -10.322108      -280.8788
  37   2.0000     -10.321554      -280.8638
  38   2.0000     -10.319902      -280.8188
  39   2.0000     -10.319745      -280.8145
  40   2.0000     -10.319553      -280.8093
  41   2.0000     -10.319445      -280.8064
  42   2.0000     -10.318606      -280.7836
  43   2.0000     -10.317890      -280.7640
  44   2.0000     -10.317297      -280.7479
  45   2.0000     -10.317177      -280.7447
  46   2.0000     -10.316762      -280.7334
  47   2.0000     -10.314038      -280.6592
  48   2.0000     -10.313758      -280.6516
  49   2.0000     -10.313059      -280.6326
  50   2.0000     -10.312629      -280.6209
  51   2.0000     -10.311487      -280.5898
  52   2.0000     -10.310279      -280.5569
  53   2.0000     -10.308246      -280.5016
  54   2.0000     -10.306700      -280.4596
  55   2.0000     -10.306181      -280.4454
  56   2.0000     -10.305021      -280.4139
  57   2.0000     -10.304229      -280.3923
  58   2.0000     -10.304115      -280.3892
  59   2.0000     -10.303311      -280.3673
  60   2.0000     -10.302529      -280.3461
  61   2.0000     -10.298546      -280.2377
  62   2.0000     -10.296456      -280.1808
  63   2.0000     -10.295779      -280.1624
  64   2.0000     -10.285661      -279.8871
  65   2.0000     -10.283955      -279.8407
  66   2.0000     -10.282670      -279.8057
  67   2.0000     -10.280360      -279.7428
  68   2.0000     -10.280340      -279.7423
  69   2.0000     -10.278645      -279.6962
  70   2.0000     -10.277803      -279.6732
  71   2.0000     -10.277183      -279.6564
  72   2.0000     -10.276712      -279.6435
  73   2.0000     -10.276692      -279.6430
  74   2.0000     -10.276511      -279.6381
  75   2.0000     -10.272564      -279.5307
  76   2.0000     -10.272209      -279.5210
  77   2.0000     -10.271578      -279.5038
  78   2.0000     -10.263891      -279.2947
  79   2.0000     -10.257989      -279.1341
  80   2.0000     -10.257162      -279.1116
  81   2.0000     -10.256218      -279.0859
  82   2.0000      -8.058918      -219.2943
  83   2.0000      -8.055975      -219.2142
  84   2.0000      -8.052757      -219.1266
  85   2.0000      -8.050274      -219.0591
  86   2.0000      -8.046719      -218.9624
  87   2.0000      -8.041924      -218.8319
  88   2.0000      -6.028203      -164.0357
  89   2.0000      -6.025222      -163.9546
  90   2.0000      -6.023858      -163.9175
  91   2.0000      -6.022191      -163.8722
  92   2.0000      -6.021230      -163.8460
  93   2.0000      -6.020913      -163.8374
  94   2.0000      -6.019660      -163.8033
  95   2.0000      -6.018291      -163.7660
  96   2.0000      -6.017837      -163.7537
  97   2.0000      -6.016635      -163.7210
  98   2.0000      -6.015360      -163.6863
  99   2.0000      -6.014767      -163.6701
 100   2.0000      -6.012386      -163.6053
 101   2.0000      -6.012275      -163.6023
 102   2.0000      -6.011665      -163.5857
 103   2.0000      -6.007714      -163.4782
 104   2.0000      -6.007573      -163.4744
 105   2.0000      -6.003092      -163.3524
 106   2.0000      -1.326488       -36.0956
 107   2.0000      -1.323350       -36.0102
 108   2.0000      -1.307628       -35.5824
 109   2.0000      -1.304922       -35.5087
 110   2.0000      -1.235760       -33.6267
 111   2.0000      -1.233363       -33.5615
 112   2.0000      -1.197418       -32.5834
 113   2.0000      -1.187661       -32.3179
 114   2.0000      -1.156050       -31.4577
 115   2.0000      -1.135757       -30.9055
 116   2.0000      -1.104876       -30.0652
 117   2.0000      -1.093647       -29.7596
 118   2.0000      -1.012278       -27.5455
 119   2.0000      -1.010717       -27.5030
 120   2.0000      -1.009442       -27.4683
 121   2.0000      -1.006066       -27.3765
 122   2.0000      -0.997218       -27.1357
 123   2.0000      -0.992264       -27.0009
 124   2.0000      -0.989603       -26.9285
 125   2.0000      -0.986832       -26.8531
 126   2.0000      -0.982149       -26.7256
 127   2.0000      -0.979358       -26.6497
 128   2.0000      -0.977356       -26.5952
 129   2.0000      -0.965957       -26.2850
 130   2.0000      -0.944958       -25.7136
 131   2.0000      -0.942087       -25.6355
 132   2.0000      -0.923303       -25.1244
 133   2.0000      -0.918546       -24.9949
 134   2.0000      -0.910874       -24.7862
 135   2.0000      -0.897672       -24.4269
 136   2.0000      -0.891861       -24.2688
 137   2.0000      -0.879127       -23.9223
 138   2.0000      -0.862278       -23.4638
 139   2.0000      -0.859078       -23.3767
 140   2.0000      -0.853888       -23.2355
 141   2.0000      -0.853193       -23.2166
 142   2.0000      -0.852006       -23.1843
 143   2.0000      -0.846319       -23.0295
 144   2.0000      -0.841366       -22.8947
 145   2.0000      -0.838466       -22.8158
 146   2.0000      -0.836473       -22.7616
 147   2.0000      -0.835330       -22.7305
 148   2.0000      -0.834464       -22.7069
 149   2.0000      -0.828842       -22.5539
 150   2.0000      -0.823405       -22.4060
 151   2.0000      -0.820119       -22.3166
 152   2.0000      -0.809071       -22.0159
 153   2.0000      -0.793832       -21.6013
 154   2.0000      -0.784908       -21.3584
 155   2.0000      -0.774852       -21.0848
 156   2.0000      -0.771622       -20.9969
 157   2.0000      -0.762656       -20.7529
 158   2.0000      -0.759407       -20.6645
 159   2.0000      -0.749273       -20.3888
 160   2.0000      -0.745971       -20.2989
 161   2.0000      -0.742608       -20.2074
 162   2.0000      -0.735327       -20.0093
 163   2.0000      -0.729433       -19.8489
 164   2.0000      -0.727604       -19.7991
 165   2.0000      -0.716995       -19.5104
 166   2.0000      -0.713378       -19.4120
 167   2.0000      -0.706982       -19.2380
 168   2.0000      -0.699285       -19.0285
 169   2.0000      -0.691248       -18.8098
 170   2.0000      -0.679169       -18.4811
 171   2.0000      -0.678021       -18.4499
 172   2.0000      -0.670877       -18.2555
 173   2.0000      -0.666718       -18.1423
 174   2.0000      -0.662558       -18.0291
 175   2.0000      -0.661329       -17.9957
 176   2.0000      -0.657467       -17.8906
 177   2.0000      -0.657098       -17.8806
 178   2.0000      -0.650596       -17.7036
 179   2.0000      -0.645158       -17.5556
 180   2.0000      -0.638190       -17.3660
 181   2.0000      -0.637202       -17.3391
 182   2.0000      -0.633479       -17.2379
 183   2.0000      -0.630314       -17.1517
 184   2.0000      -0.629257       -17.1230
 185   2.0000      -0.628213       -17.0945
 186   2.0000      -0.625286       -17.0149
 187   2.0000      -0.623351       -16.9622
 188   2.0000      -0.617656       -16.8073
 189   2.0000      -0.615264       -16.7422
 190   2.0000      -0.613516       -16.6946
 191   2.0000      -0.609389       -16.5823
 192   2.0000      -0.606229       -16.4963
 193   2.0000      -0.604550       -16.4506
 194   2.0000      -0.601745       -16.3743
 195   2.0000      -0.594985       -16.1904
 196   2.0000      -0.592907       -16.1338
 197   2.0000      -0.588942       -16.0259
 198   2.0000      -0.587492       -15.9865
 199   2.0000      -0.585029       -15.9195
 200   2.0000      -0.582712       -15.8564
 201   2.0000      -0.578207       -15.7338
 202   2.0000      -0.574882       -15.6433
 203   2.0000      -0.572885       -15.5890
 204   2.0000      -0.568612       -15.4727
 205   2.0000      -0.564749       -15.3676
 206   2.0000      -0.562066       -15.2946
 207   2.0000      -0.560782       -15.2597
 208   2.0000      -0.558819       -15.2062
 209   2.0000      -0.554332       -15.0842
 210   2.0000      -0.551159       -14.9978
 211   2.0000      -0.549070       -14.9409
 212   2.0000      -0.548218       -14.9178
 213   2.0000      -0.546853       -14.8806
 214   2.0000      -0.545278       -14.8378
 215   2.0000      -0.544639       -14.8204
 216   2.0000      -0.541410       -14.7325
 217   2.0000      -0.537234       -14.6189
 218   2.0000      -0.534039       -14.5319
 219   2.0000      -0.525342       -14.2953
 220   2.0000      -0.522224       -14.2104
 221   2.0000      -0.520540       -14.1646
 222   2.0000      -0.516579       -14.0568
 223   2.0000      -0.515658       -14.0318
 224   2.0000      -0.507410       -13.8073
 225   2.0000      -0.506582       -13.7848
 226   2.0000      -0.505368       -13.7518
 227   2.0000      -0.502713       -13.6795
 228   2.0000      -0.502617       -13.6769
 229   2.0000      -0.501604       -13.6493
 230   2.0000      -0.500575       -13.6213
 231   2.0000      -0.494659       -13.4604
 232   2.0000      -0.493821       -13.4376
 233   2.0000      -0.491377       -13.3710
 234   2.0000      -0.491144       -13.3647
 235   2.0000      -0.489023       -13.3070
 236   2.0000      -0.488760       -13.2998
 237   2.0000      -0.484111       -13.1733
 238   2.0000      -0.482639       -13.1333
 239   2.0000      -0.482230       -13.1221
 240   2.0000      -0.480700       -13.0805
 241   2.0000      -0.479890       -13.0585
 242   2.0000      -0.479407       -13.0453
 243   2.0000      -0.477977       -13.0064
 244   2.0000      -0.477093       -12.9824
 245   2.0000      -0.475674       -12.9438
 246   2.0000      -0.473042       -12.8721
 247   2.0000      -0.471462       -12.8291
 248   2.0000      -0.467594       -12.7239
 249   2.0000      -0.466027       -12.6812
 250   2.0000      -0.464029       -12.6269
 251   2.0000      -0.462202       -12.5772
 252   2.0000      -0.461928       -12.5697
 253   2.0000      -0.460274       -12.5247
 254   2.0000      -0.459452       -12.5023
 255   2.0000      -0.458568       -12.4783
 256   2.0000      -0.456849       -12.4315
 257   2.0000      -0.456303       -12.4166
 258   2.0000      -0.453652       -12.3445
 259   2.0000      -0.452844       -12.3225
 260   2.0000      -0.452504       -12.3133
 261   2.0000      -0.451662       -12.2903
 262   2.0000      -0.445323       -12.1178
 263   2.0000      -0.445259       -12.1161
 264   2.0000      -0.444229       -12.0881
 265   2.0000      -0.440538       -11.9877
 266   2.0000      -0.436285       -11.8719
 267   2.0000      -0.431840       -11.7510
 268   2.0000      -0.431615       -11.7448
 269   2.0000      -0.430881       -11.7249
 270   2.0000      -0.427582       -11.6351
 271   2.0000      -0.426144       -11.5960
 272   2.0000      -0.425690       -11.5836
 273   2.0000      -0.423318       -11.5191
 274   2.0000      -0.417972       -11.3736
 275   2.0000      -0.416506       -11.3337
 276   2.0000      -0.415452       -11.3050
 277   2.0000      -0.414561       -11.2808
 278   2.0000      -0.414299       -11.2737
 279   2.0000      -0.410747       -11.1770
 280   2.0000      -0.407379       -11.0853
 281   2.0000      -0.405327       -11.0295
 282   2.0000      -0.403528       -10.9806
 283   2.0000      -0.402748       -10.9593
 284   2.0000      -0.401312       -10.9203
 285   2.0000      -0.399351       -10.8669
 286   2.0000      -0.396651       -10.7934
 287   2.0000      -0.380343       -10.3497
 288   2.0000      -0.377567       -10.2741
 289   2.0000      -0.376594       -10.2476
 290   2.0000      -0.375831       -10.2269
 291   2.0000      -0.375492       -10.2177
 292   2.0000      -0.375066       -10.2061
 293   2.0000      -0.368310       -10.0222
 294   2.0000      -0.360000        -9.7961
 295   2.0000      -0.356059        -9.6889
 296   2.0000      -0.352993        -9.6054
 297   2.0000      -0.348704        -9.4887
 298   2.0000      -0.339675        -9.2430
 299   2.0000      -0.334024        -9.0893
 300   2.0000      -0.331854        -9.0302
 301   2.0000      -0.329915        -8.9774
 302   2.0000      -0.328060        -8.9270
 303   2.0000      -0.327020        -8.8987
 304   2.0000      -0.326059        -8.8725
 305   2.0000      -0.323995        -8.8164
 306   2.0000      -0.318291        -8.6611
 307   2.0000      -0.315950        -8.5974
 308   2.0000      -0.290809        -7.9133
 309   2.0000      -0.278837        -7.5875
 310   2.0000      -0.255098        -6.9416
 311   2.0000      -0.252489        -6.8706
 312   2.0000      -0.227391        -6.1876
 313   0.0000      -0.080591        -2.1930
 314   0.0000      -0.075212        -2.0466
 315   0.0000      -0.042470        -1.1557
 316   0.0000      -0.031973        -0.8700
 317   0.0000      -0.017846        -0.4856

MULLIKEN ATOMIC CHARGES
-----------------------
   0 C :    0.058275
   1 C :   -0.070082
   2 C :    0.037242
   3 C :    0.098343
   4 C :   -0.130647
   5 C :    0.122673
   6 C :   -0.101272
   7 C :    0.014060
   8 S :    0.071624
   9 C :   -0.087288
  10 C :   -0.001294
  11 S :    0.122207
  12 O :   -0.306478
  13 O :   -0.332463
  14 C :   -0.024457
  15 C :   -0.028657
  16 C :   -0.014488
  17 C :    0.010092
  18 C :   -0.140908
  19 S :    0.144464
  20 S :    0.139960
  21 C :   -0.129875
  22 C :    0.004195
  23 C :   -0.011434
  24 C :    0.147028
  25 C :    0.123676
  26 C :   -0.039534
  27 C :   -0.071303
  28 C :    0.143629
  29 C :    0.128502
  30 C :    0.109436
  31 C :    0.117948
  32 C :    0.121218
  33 C :    0.110656
  34 C :   -0.036979
  35 C :   -0.072442
  36 N :   -0.053317
  37 N :   -0.068528
  38 N :   -0.081097
  39 N :   -0.060881
  40 N :   -0.068208
  41 N :   -0.077663
  42 C :   -0.125737
  43 F :   -0.172538
  44 F :   -0.179709
  45 C :    0.141299
  46 C :   -0.019222
  47 F :   -0.178428
  48 F :   -0.176868
  49 C :    0.144576
  50 C :   -0.021168
  51 C :   -0.106010
  52 C :   -0.009749
  53 C :    0.036213
  54 C :   -0.089046
  55 S :    0.163777
  56 S :    0.121097
  57 C :   -0.060337
  58 C :    0.032909
  59 C :    0.009653
  60 C :    0.155733
  61 C :   -0.258956
  62 C :   -0.127102
  63 C :    0.226116
  64 O :   -0.286686
  65 O :   -0.218647
  66 C :    0.173475
  67 C :   -0.026866
  68 C :    0.118304
  69 C :   -0.196155
  70 C :    0.185357
  71 C :   -0.134490
  72 O :   -0.287874
  73 O :   -0.182675
  74 C :    0.169070
  75 C :   -0.025708
  76 N :    0.106811
  77 N :    0.113505
  78 C :    0.120925
  79 C :    0.025292
  80 C :    0.185878
  81 C :   -0.027134
  82 H :   -0.007602
  83 H :   -0.009161
  84 H :   -0.010932
  85 H :   -0.009802
  86 H :   -0.006135
  87 H :   -0.010498
  88 H :    0.043247
  89 H :    0.040547
  90 H :    0.042302
  91 H :    0.034013
  92 H :    0.032178
  93 H :    0.041618
  94 H :    0.040854
  95 H :    0.044447
  96 H :    0.032015
  97 H :    0.031682
  98 H :   -0.000348
  99 H :    0.009752
 100 H :   -0.011873
 101 H :   -0.006328
 102 H :    0.011339
 103 H :    0.025829
 104 H :    0.027966
 105 H :    0.030643
 106 H :    0.022126
 107 H :    0.032827
 108 H :    0.009599
 109 H :    0.031815
 110 H :    0.025021
 111 H :    0.041632
 112 H :    0.025061
 113 H :    0.030087
 114 H :    0.030878
 115 H :    0.028873
 116 H :    0.028314
 117 H :    0.018776
 118 H :    0.027212
 119 H :    0.004500
 120 H :    0.015887
 121 H :    0.034424
 122 H :    0.015176
 123 H :    0.027220
Sum of atomic charges:   -0.0000000

LOEWDIN ATOMIC CHARGES
----------------------
   0 C :   -0.065762
   1 C :   -0.164737
   2 C :    0.004637
   3 C :   -0.054076
   4 C :   -0.189043
   5 C :    0.036489
   6 C :   -0.058415
   7 C :   -0.165865
   8 S :    0.396555
   9 C :   -0.046766
  10 C :   -0.170562
  11 S :    0.408170
  12 O :   -0.097007
  13 O :   -0.133320
  14 C :   -0.183130
  15 C :   -0.177559
  16 C :   -0.065402
  17 C :   -0.037348
  18 C :   -0.179241
  19 S :    0.454440
  20 S :    0.469753
  21 C :   -0.170910
  22 C :   -0.041903
  23 C :   -0.062384
  24 C :   -0.059875
  25 C :   -0.052328
  26 C :   -0.045567
  27 C :   -0.051228
  28 C :   -0.076678
  29 C :    0.075330
  30 C :    0.051715
  31 C :    0.063986
  32 C :    0.062962
  33 C :   -0.068636
  34 C :   -0.042864
  35 C :   -0.053267
  36 N :   -0.078957
  37 N :    0.162713
  38 N :   -0.102160
  39 N :   -0.082696
  40 N :    0.162015
  41 N :   -0.098171
  42 C :   -0.150778
  43 F :   -0.044247
  44 F :   -0.054827
  45 C :    0.038199
  46 C :   -0.054856
  47 F :   -0.053619
  48 F :   -0.048511
  49 C :    0.038576
  50 C :   -0.054865
  51 C :   -0.159858
  52 C :   -0.050050
  53 C :   -0.018945
  54 C :   -0.197393
  55 S :    0.484191
  56 S :    0.480827
  57 C :   -0.187024
  58 C :   -0.034392
  59 C :   -0.049916
  60 C :    0.056883
  61 C :   -0.140788
  62 C :   -0.028724
  63 C :    0.094420
  64 O :   -0.074725
  65 O :   -0.189689
  66 C :    0.086654
  67 C :   -0.067494
  68 C :    0.030148
  69 C :   -0.108286
  70 C :    0.067430
  71 C :   -0.030487
  72 O :   -0.077180
  73 O :   -0.148541
  74 C :    0.083954
  75 C :   -0.066660
  76 N :   -0.065837
  77 N :   -0.057551
  78 C :    0.070168
  79 C :   -0.058017
  80 C :    0.082300
  81 C :   -0.074859
  82 H :    0.027339
  83 H :    0.029336
  84 H :    0.026704
  85 H :    0.028430
  86 H :    0.030499
  87 H :    0.026564
  88 H :    0.039189
  89 H :    0.038178
  90 H :    0.033655
  91 H :    0.034981
  92 H :    0.031853
  93 H :    0.038275
  94 H :    0.038336
  95 H :    0.033606
  96 H :    0.034472
  97 H :    0.031857
  98 H :    0.032383
  99 H :    0.040289
 100 H :    0.032778
 101 H :    0.029392
 102 H :    0.044742
 103 H :    0.025117
 104 H :    0.021187
 105 H :    0.029450
 106 H :    0.032470
 107 H :    0.030531
 108 H :    0.050499
 109 H :    0.020960
 110 H :    0.024892
 111 H :    0.033606
 112 H :    0.034097
 113 H :    0.029611
 114 H :    0.010410
 115 H :    0.010672
 116 H :    0.030698
 117 H :    0.031809
 118 H :    0.030303
 119 H :    0.008270
 120 H :    0.020683
 121 H :    0.029146
 122 H :    0.029814
 123 H :    0.024378

  Mayer bond orders larger than 0.100000
B(  0-C ,  1-C ) :   1.3389 B(  0-C ,  5-C ) :   1.2788 B(  0-C ,  9-C ) :   1.1701
B(  1-C ,  2-C ) :   1.4035 B(  1-C , 11-S ) :   1.0414 B(  2-C ,  3-C ) :   1.2826
B(  2-C , 13-O ) :   1.1898 B(  3-C ,  4-C ) :   1.2832 B(  3-C ,  6-C ) :   1.1535
B(  4-C ,  5-C ) :   1.3796 B(  4-C ,  8-S ) :   0.9990 B(  5-C , 12-O ) :   1.2318
B(  6-C ,  7-C ) :   1.5628 B(  6-C , 82-H ) :   0.9987 B(  7-C ,  8-S ) :   1.0564
B(  7-C , 14-C ) :   1.1477 B(  9-C , 10-C ) :   1.5466 B(  9-C , 83-H ) :   1.0049
B( 10-C , 11-S ) :   1.0541 B( 10-C , 15-C ) :   1.1496 B( 12-O , 78-C ) :   0.9258
B( 13-O , 80-C ) :   0.9472 B( 14-C , 20-S ) :   1.1088 B( 14-C , 21-C ) :   0.1040
B( 14-C , 23-C ) :   1.4876 B( 15-C , 16-C ) :   1.4815 B( 15-C , 18-C ) :   0.1012
B( 15-C , 19-S ) :   1.1221 B( 16-C , 17-C ) :   1.2546 B( 16-C , 84-H ) :   0.9956
B( 17-C , 18-C ) :   1.5115 B( 17-C , 85-H ) :   0.9806 B( 18-C , 19-S ) :   1.1041
B( 18-C , 25-C ) :   1.1416 B( 20-S , 21-C ) :   1.1254 B( 21-C , 22-C ) :   1.4938
B( 21-C , 24-C ) :   1.1204 B( 22-C , 23-C ) :   1.2605 B( 22-C , 86-H ) :   0.9945
B( 23-C , 87-H ) :   0.9938 B( 24-C , 31-C ) :   1.3703 B( 24-C , 33-C ) :   0.1220
B( 24-C , 35-C ) :   1.1581 B( 25-C , 26-C ) :   1.1752 B( 25-C , 28-C ) :   0.1199
B( 25-C , 30-C ) :   1.3619 B( 26-C , 27-C ) :   1.2288 B( 26-C , 36-N ) :   1.4733
B( 27-C , 28-C ) :   1.1582 B( 27-C , 38-N ) :   1.4567 B( 28-C , 29-C ) :   1.3662
B( 28-C , 42-C ) :   1.1107 B( 29-C , 30-C ) :   1.1992 B( 29-C , 43-F ) :   1.1423
B( 30-C , 44-F ) :   1.1301 B( 31-C , 32-C ) :   1.1965 B( 31-C , 48-F ) :   1.1370
B( 32-C , 33-C ) :   1.3652 B( 32-C , 47-F ) :   1.1295 B( 33-C , 34-C ) :   1.1705
B( 33-C , 51-C ) :   1.1365 B( 34-C , 35-C ) :   1.2275 B( 34-C , 39-N ) :   1.4742
B( 35-C , 41-N ) :   1.4570 B( 36-N , 37-N ) :   1.2366 B( 36-N , 38-N ) :   0.1584
B( 37-N , 38-N ) :   1.2303 B( 37-N , 45-C ) :   0.9306 B( 39-N , 40-N ) :   1.2329
B( 39-N , 41-N ) :   0.1594 B( 40-N , 41-N ) :   1.2356 B( 40-N , 49-C ) :   0.9281
B( 42-C , 52-C ) :   1.4523 B( 42-C , 54-C ) :   0.1030 B( 42-C , 55-S ) :   1.1723
B( 45-C , 46-C ) :   1.1115 B( 45-C , 88-H ) :   0.9459 B( 45-C , 89-H ) :   0.9449
B( 46-C , 90-H ) :   0.9696 B( 46-C , 91-H ) :   0.9684 B( 46-C , 92-H ) :   0.9674
B( 49-C , 50-C ) :   1.1110 B( 49-C , 93-H ) :   0.9468 B( 49-C , 94-H ) :   0.9450
B( 50-C , 95-H ) :   0.9694 B( 50-C , 96-H ) :   0.9680 B( 50-C , 97-H ) :   0.9673
B( 51-C , 56-S ) :   1.1398 B( 51-C , 59-C ) :   1.4984 B( 52-C , 53-C ) :   1.2976
B( 52-C , 98-H ) :   0.9955 B( 53-C , 54-C ) :   1.4383 B( 53-C , 99-H ) :   0.9857
B( 54-C , 55-S ) :   1.0802 B( 54-C , 60-C ) :   1.1289 B( 56-S , 57-C ) :   1.1047
B( 57-C , 58-C ) :   1.4451 B( 57-C , 68-C ) :   1.1313 B( 58-C , 59-C ) :   1.2624
B( 58-C ,100-H ) :   1.0025 B( 59-C ,101-H ) :   0.9786 B( 60-C , 61-C ) :   1.7328
B( 60-C ,102-H ) :   0.9344 B( 61-C , 62-C ) :   1.0875 B( 61-C , 63-C ) :   0.9510
B( 62-C , 76-N ) :   2.9653 B( 63-C , 64-O ) :   1.2491 B( 63-C , 65-O ) :   2.0888
B( 64-O , 66-C ) :   0.9018 B( 66-C , 67-C ) :   1.1201 B( 66-C ,103-H ) :   0.9613
B( 66-C ,104-H ) :   0.9463 B( 67-C ,105-H ) :   0.9677 B( 67-C ,106-H ) :   0.9650
B( 67-C ,107-H ) :   0.9674 B( 68-C , 69-C ) :   1.7812 B( 68-C ,108-H ) :   0.9688
B( 69-C , 70-C ) :   0.8320 B( 69-C , 71-C ) :   1.1835 B( 70-C , 72-O ) :   1.2316
B( 70-C , 73-O ) :   2.1275 B( 71-C , 77-N ) :   3.0192 B( 72-O , 74-C ) :   0.8836
B( 74-C , 75-C ) :   1.1239 B( 74-C ,109-H ) :   0.9449 B( 74-C ,110-H ) :   0.9603
B( 75-C ,111-H ) :   0.9664 B( 75-C ,112-H ) :   0.9643 B( 75-C ,113-H ) :   0.9666
B( 78-C , 79-C ) :   1.0996 B( 78-C ,114-H ) :   0.9483 B( 78-C ,115-H ) :   0.9487
B( 79-C ,116-H ) :   0.9689 B( 79-C ,117-H ) :   0.9605 B( 79-C ,118-H ) :   0.9691
B( 80-C , 81-C ) :   1.1040 B( 80-C ,119-H ) :   0.9481 B( 80-C ,120-H ) :   0.9607
B( 81-C ,121-H ) :   0.9672 B( 81-C ,122-H ) :   0.9590 B( 81-C ,123-H ) :   0.9652

-----------------------------------------------------------------------------
         ABSORPTION SPECTRUM VIA TRANSITION ELECTRIC DIPOLE MOMENTS
-----------------------------------------------------------------------------
State   Energy  Wavelength   fosc         T2         TX        TY        TZ
        (cm-1)    (nm)                  (au**2)     (au)      (au)      (au)
-----------------------------------------------------------------------------
   0   18857.3    530.3   2.975552565  51.94743  -6.35515  -3.39599   0.16332
   1   21279.7    469.9   0.070219080   1.08634  -0.64164  -0.23978   0.78558
   2   24513.3    407.9   1.201583075  16.13719  -2.56059  -3.07892   0.31760
   3   25198.2    396.9   0.034958943   0.45674   0.12148   0.31283   0.58661
   4   28239.4    354.1   0.360394032   4.20143  -2.04742  -0.08943   0.03891
   5   28663.3    348.9   0.085291571   0.97961   0.83492   0.52802  -0.06097
   6   29752.1    336.1   0.003606245   0.03990  -0.02117  -0.19067  -0.05567
   7   30989.2    322.7   0.026248246   0.27885   0.50382  -0.04298   0.15219
   8   31487.7    317.6   0.015294308   0.15991  -0.28761  -0.09442  -0.26128
   9   31665.3    315.8   0.020370981   0.21179   0.26964  -0.37267  -0.01410
  10   32355.7    309.1   0.151877272   1.54532  -1.19294   0.25976   0.23397
  11   34055.5    293.6   0.009097358   0.08794  -0.26235   0.00663   0.13810
  12   34417.9    290.5   0.109102343   1.04358   0.92567   0.43046  -0.03774
  13   35223.6    283.9   0.001343171   0.01255  -0.05951  -0.02713   0.09098
  14   36360.0    275.0   0.067052794   0.60711  -0.76078  -0.15242   0.07135
  15   36998.3    270.3   0.002574184   0.02291  -0.13630   0.02777   0.05963
  16   37088.1    269.6   0.134163637   1.19090   0.87062  -0.65186   0.08942
  17   37390.3    267.4   0.009841474   0.08665   0.18989   0.19766  -0.10735
  18   37881.8    264.0   0.001136813   0.00988   0.02892   0.07932  -0.05245
  19   38302.3    261.1   0.190990883   1.64158   0.87739  -0.93279   0.04075
  20   38666.7    258.6   0.005778719   0.04920  -0.14708   0.10522   0.12844
  21   39120.0    255.6   0.002780484   0.02340  -0.06208   0.10375  -0.09371
  22   39868.7    250.8   0.001676902   0.01385  -0.06101   0.06700   0.07507
  23   40278.9    248.3   0.008905487   0.07279   0.22015   0.13896   0.07080

FINAL SINGLE POINT ENERGY     -5908.265146559048

DIPOLE MOMENT
-------------
                                X             Y             Z
Electronic contribution:    -43.22577       6.90716      -7.82219
Nuclear contribution   :     46.18350      -9.00041       7.25046
                        -----------------------------------------
Total Dipole Moment    :      2.95773      -2.09325      -0.57172
                        -----------------------------------------
Magnitude (a.u.)       :      3.66834
Magnitude (Debye)      :      9.32419

Rotational constants in cm-1:     0.002527     0.000107     0.000105
Rotational constants in MHz :    75.747965     3.212862     3.135452

                             ****ORCA TERMINATED NORMALLY****
TOTAL RUN TIME: 0 days 0 hours 12 minutes 6 seconds 196 msec
