                         Program Version 4.2.0 -  RELEASE  -
|  1> # ORCA input file
|  2> # SCF done       -146.384239478693          0.000357402356
|  3> ! CAM-B3LYP def2-SVP def2/J RIJCOSX Grid4 TightSCF
|  4> %maxcore 5000
|  5> %tddft
|  6>     Mode sTDDFT
|  7>     Ethresh 5.0
|  8>     maxcore 5000
|  9> end
| 10>
| 11> %pal
| 12>   nprocs 6
| 13>   end
| 14> * xyz 0 1
| 15>    C        0.40170         1.28536         0.70894
| 16>    C        1.55429         0.55470         0.79291
| 17>    C        1.57312        -0.83053         0.56843
| 18>    C        0.42067        -1.54643         0.28472
| 19>    C       -0.79813        -0.80453         0.25125
| 20>    C       -0.79156         0.60893         0.40701
| 21>    N       -1.96953        -1.45034         0.16737
| 22>    C       -3.09241        -0.76781         0.11943
| 23>    C       -3.04163         0.66340        -0.03233
| 24>    N       -1.92018         1.30441         0.18770
| 25>    F        2.71824         1.16846         1.07074
| 26>    F        2.77204        -1.44303         0.62042
| 27>    C        1.38391        -3.90036         0.31662
| 28>    C        1.04886        -5.18901        -0.10812
| 29>    C       -0.16257        -5.25288        -0.75235
| 30>    S       -0.92912        -3.69454        -0.78007
| 31>    C        0.41803        -2.96272         0.03095
| 32>    C       -4.34774        -1.48952         0.29940
| 33>    C       -4.46142        -2.80797        -0.13730
| 34>    C       -5.62999        -3.53728         0.01713
| 35>    C       -6.73893        -2.91951         0.63268
| 36>    C       -6.59509        -1.61602         1.11012
| 37>    C       -5.42811        -0.90470         0.95719
| 38>    C       -4.18727         1.46745        -0.45410
| 39>    C       -4.32692         2.76864         0.01426
| 40>    C       -5.40634         3.53447        -0.37831
| 41>    C       -6.36786         3.04654        -1.25784
| 42>    C       -6.20970         1.74254        -1.77488
| 43>    C       -5.12569         0.98124        -1.35853
| 44>    O       -7.46445         3.76689        -1.64166
| 45>    C       -7.61843         5.09605        -1.18544
| 46>    C       -8.89460         5.64416        -1.80565
| 47>    O       -7.02826         1.10205        -2.65041
| 48>    C       -8.04514         1.78332        -3.36569
| 49>    C       -8.60226         0.80279        -4.38700
| 50>    O       -7.96700        -3.44974         0.84765
| 51>    C       -8.34654        -4.72059         0.34609
| 52>    C       -9.83212        -4.88460         0.63133
| 53>    O       -5.77375        -4.83105        -0.41836
| 54>    C       -4.62352        -5.61009        -0.68494
| 55>    C       -3.82183        -5.93335         0.57024
| 56>    C       -0.80385        -6.41210        -1.33055
| 57>    C       -0.54239        -7.69730        -0.84634
| 58>    C       -1.17751        -8.79319        -1.38393
| 59>    C       -2.09791        -8.65913        -2.42798
| 60>    C       -2.34376        -7.37430        -2.92383
| 61>    C       -1.70980        -6.27773        -2.38558
| 62>    C       -2.77097        -9.81740        -2.97148
| 63>    S       -2.39260       -11.41932        -2.39626
| 64>    C       -3.53523       -12.12346        -3.46378
| 65>    C       -4.17221       -11.19058        -4.21756
| 66>    C       -3.73947        -9.88023        -3.93931
| 67>    H        0.40175         2.35332         0.84554
| 68>    H        2.30223        -3.67336         0.82494
| 69>    H        1.69675        -6.03723         0.02241
| 70>    H       -3.60281        -3.24500        -0.61839
| 71>    H       -7.44457        -1.18115         1.61232
| 72>    H       -5.35034         0.09123         1.36292
| 73>    H       -3.59473         3.16624         0.69797
| 74>    H       -5.50129         4.53256         0.01791
| 75>    H       -5.03172        -0.00785        -1.77754
| 76>    H       -6.75635         5.70419        -1.49207
| 77>    H       -7.69315         5.11445        -0.08940
| 78>    H       -8.82192         5.62141        -2.88958
| 79>    H       -9.05194         6.66826        -1.48005
| 80>    H       -9.74480         5.03919        -1.50288
| 81>    H       -7.63028         2.66299        -3.87056
| 82>    H       -8.83716         2.11140        -2.68384
| 83>    H       -7.81728         0.48766        -5.06901
| 84>    H       -9.40056         1.27368        -4.95346
| 85>    H       -8.99230        -0.07559        -3.88048
| 86>    H       -7.77494        -5.51200         0.84342
| 87>    H       -8.15598        -4.77582        -0.73065
| 88>    H      -10.01494        -4.82203         1.70059
| 89>    H      -10.17289        -5.84929         0.26661
| 90>    H      -10.39534        -4.09689         0.13828
| 91>    H       -3.98808        -5.12855        -1.43557
| 92>    H       -5.02611        -6.53014        -1.11827
| 93>    H       -3.39898        -5.02945         1.00151
| 94>    H       -3.01513        -6.61534         0.31777
| 95>    H       -4.46495        -6.40449         1.30996
| 96>    H        0.14737        -7.82821        -0.02673
| 97>    H       -0.97000        -9.77732        -0.98902
| 98>    H       -3.03414        -7.23597        -3.74079
| 99>    H       -1.89822        -5.29345        -2.78952
|100>    H       -3.66454       -13.18749        -3.46629
|101>    H       -4.92531       -11.42764        -4.94765
|102>    H       -4.13903        -9.01778        -4.44056
|103> *
|104>
|105>                          ****END OF INPUT****

CARTESIAN COORDINATES (ANGSTROEM)
---------------------------------
  C      0.401700    1.285360    0.708940
  C      1.554290    0.554700    0.792910
  C      1.573120   -0.830530    0.568430
  C      0.420670   -1.546430    0.284720
  C     -0.798130   -0.804530    0.251250
  C     -0.791560    0.608930    0.407010
  N     -1.969530   -1.450340    0.167370
  C     -3.092410   -0.767810    0.119430
  C     -3.041630    0.663400   -0.032330
  N     -1.920180    1.304410    0.187700
  F      2.718240    1.168460    1.070740
  F      2.772040   -1.443030    0.620420
  C      1.383910   -3.900360    0.316620
  C      1.048860   -5.189010   -0.108120
  C     -0.162570   -5.252880   -0.752350
  S     -0.929120   -3.694540   -0.780070
  C      0.418030   -2.962720    0.030950
  C     -4.347740   -1.489520    0.299400
  C     -4.461420   -2.807970   -0.137300
  C     -5.629990   -3.537280    0.017130
  C     -6.738930   -2.919510    0.632680
  C     -6.595090   -1.616020    1.110120
  C     -5.428110   -0.904700    0.957190
  C     -4.187270    1.467450   -0.454100
  C     -4.326920    2.768640    0.014260
  C     -5.406340    3.534470   -0.378310
  C     -6.367860    3.046540   -1.257840
  C     -6.209700    1.742540   -1.774880
  C     -5.125690    0.981240   -1.358530
  O     -7.464450    3.766890   -1.641660
  C     -7.618430    5.096050   -1.185440
  C     -8.894600    5.644160   -1.805650
  O     -7.028260    1.102050   -2.650410
  C     -8.045140    1.783320   -3.365690
  C     -8.602260    0.802790   -4.387000
  O     -7.967000   -3.449740    0.847650
  C     -8.346540   -4.720590    0.346090
  C     -9.832120   -4.884600    0.631330
  O     -5.773750   -4.831050   -0.418360
  C     -4.623520   -5.610090   -0.684940
  C     -3.821830   -5.933350    0.570240
  C     -0.803850   -6.412100   -1.330550
  C     -0.542390   -7.697300   -0.846340
  C     -1.177510   -8.793190   -1.383930
  C     -2.097910   -8.659130   -2.427980
  C     -2.343760   -7.374300   -2.923830
  C     -1.709800   -6.277730   -2.385580
  C     -2.770970   -9.817400   -2.971480
  S     -2.392600  -11.419320   -2.396260
  C     -3.535230  -12.123460   -3.463780
  C     -4.172210  -11.190580   -4.217560
  C     -3.739470   -9.880230   -3.939310
  H      0.401750    2.353320    0.845540
  H      2.302230   -3.673360    0.824940
  H      1.696750   -6.037230    0.022410
  H     -3.602810   -3.245000   -0.618390
  H     -7.444570   -1.181150    1.612320
  H     -5.350340    0.091230    1.362920
  H     -3.594730    3.166240    0.697970
  H     -5.501290    4.532560    0.017910
  H     -5.031720   -0.007850   -1.777540
  H     -6.756350    5.704190   -1.492070
  H     -7.693150    5.114450   -0.089400
  H     -8.821920    5.621410   -2.889580
  H     -9.051940    6.668260   -1.480050
  H     -9.744800    5.039190   -1.502880
  H     -7.630280    2.662990   -3.870560
  H     -8.837160    2.111400   -2.683840
  H     -7.817280    0.487660   -5.069010
  H     -9.400560    1.273680   -4.953460
  H     -8.992300   -0.075590   -3.880480
  H     -7.774940   -5.512000    0.843420
  H     -8.155980   -4.775820   -0.730650
  H    -10.014940   -4.822030    1.700590
  H    -10.172890   -5.849290    0.266610
  H    -10.395340   -4.096890    0.138280
  H     -3.988080   -5.128550   -1.435570
  H     -5.026110   -6.530140   -1.118270
  H     -3.398980   -5.029450    1.001510
  H     -3.015130   -6.615340    0.317770
  H     -4.464950   -6.404490    1.309960
  H      0.147370   -7.828210   -0.026730
  H     -0.970000   -9.777320   -0.989020
  H     -3.034140   -7.235970   -3.740790
  H     -1.898220   -5.293450   -2.789520
  H     -3.664540  -13.187490   -3.466290
  H     -4.925310  -11.427640   -4.947650
  H     -4.139030   -9.017780   -4.440560

 Total Charge           Charge          ....    0
 Multiplicity           Mult            ....    1
 Number of Electrons    NEL             ....  384
 Basis Dimension        Dim             ....  916

ORBITAL ENERGIES
----------------

  NO   OCC          E(Eh)            E(eV)
   0   2.0000     -88.948030     -2420.3989
   1   2.0000     -88.945029     -2420.3173
   2   2.0000     -24.786327      -674.4702
   3   2.0000     -24.779676      -674.2893
   4   2.0000     -19.240377      -523.5573
   5   2.0000     -19.227549      -523.2082
   6   2.0000     -19.226994      -523.1931
   7   2.0000     -19.225290      -523.1467
   8   2.0000     -14.413182      -392.2026
   9   2.0000     -14.409723      -392.1085
  10   2.0000     -10.363045      -281.9928
  11   2.0000     -10.362075      -281.9664
  12   2.0000     -10.327194      -281.0172
  13   2.0000     -10.324497      -280.9439
  14   2.0000     -10.320833      -280.8441
  15   2.0000     -10.320518      -280.8356
  16   2.0000     -10.319477      -280.8072
  17   2.0000     -10.317377      -280.7501
  18   2.0000     -10.315156      -280.6897
  19   2.0000     -10.312025      -280.6045
  20   2.0000     -10.309753      -280.5426
  21   2.0000     -10.309734      -280.5421
  22   2.0000     -10.303830      -280.3815
  23   2.0000     -10.302439      -280.3436
  24   2.0000     -10.297457      -280.2081
  25   2.0000     -10.293651      -280.1045
  26   2.0000     -10.293154      -280.0910
  27   2.0000     -10.286221      -279.9023
  28   2.0000     -10.286217      -279.9022
  29   2.0000     -10.284026      -279.8426
  30   2.0000     -10.280913      -279.7579
  31   2.0000     -10.276436      -279.6360
  32   2.0000     -10.272156      -279.5196
  33   2.0000     -10.271679      -279.5066
  34   2.0000     -10.271146      -279.4921
  35   2.0000     -10.270888      -279.4851
  36   2.0000     -10.266360      -279.3619
  37   2.0000     -10.266027      -279.3528
  38   2.0000     -10.263805      -279.2923
  39   2.0000     -10.263216      -279.2763
  40   2.0000     -10.262421      -279.2547
  41   2.0000     -10.262411      -279.2544
  42   2.0000     -10.262208      -279.2489
  43   2.0000     -10.259408      -279.1727
  44   2.0000     -10.258105      -279.1372
  45   2.0000     -10.257124      -279.1105
  46   2.0000     -10.256665      -279.0980
  47   2.0000     -10.256439      -279.0919
  48   2.0000     -10.251760      -278.9646
  49   2.0000     -10.247400      -278.8459
  50   2.0000     -10.246595      -278.8240
  51   2.0000     -10.244507      -278.7672
  52   2.0000      -8.043833      -218.8838
  53   2.0000      -8.038628      -218.7422
  54   2.0000      -6.013069      -163.6239
  55   2.0000      -6.008796      -163.5076
  56   2.0000      -6.008006      -163.4862
  57   2.0000      -6.006253      -163.4385
  58   2.0000      -6.003613      -163.3666
  59   2.0000      -6.001066      -163.2973
  60   2.0000      -1.305175       -35.5156
  61   2.0000      -1.287768       -35.0419
  62   2.0000      -1.148856       -31.2619
  63   2.0000      -1.140591       -31.0371
  64   2.0000      -1.124245       -30.5923
  65   2.0000      -1.120682       -30.4953
  66   2.0000      -1.074177       -29.2298
  67   2.0000      -0.999495       -27.1976
  68   2.0000      -0.980109       -26.6701
  69   2.0000      -0.975147       -26.5351
  70   2.0000      -0.959264       -26.1029
  71   2.0000      -0.945962       -25.7409
  72   2.0000      -0.936991       -25.4968
  73   2.0000      -0.933884       -25.4123
  74   2.0000      -0.882332       -24.0095
  75   2.0000      -0.878410       -23.9028
  76   2.0000      -0.864496       -23.5241
  77   2.0000      -0.856085       -23.2953
  78   2.0000      -0.852101       -23.1868
  79   2.0000      -0.844982       -22.9931
  80   2.0000      -0.843086       -22.9415
  81   2.0000      -0.839303       -22.8386
  82   2.0000      -0.820444       -22.3254
  83   2.0000      -0.818224       -22.2650
  84   2.0000      -0.814875       -22.1739
  85   2.0000      -0.811429       -22.0801
  86   2.0000      -0.807699       -21.9786
  87   2.0000      -0.800235       -21.7755
  88   2.0000      -0.794214       -21.6117
  89   2.0000      -0.774313       -21.0701
  90   2.0000      -0.750741       -20.4287
  91   2.0000      -0.743372       -20.2282
  92   2.0000      -0.728464       -19.8225
  93   2.0000      -0.723110       -19.6768
  94   2.0000      -0.719510       -19.5789
  95   2.0000      -0.702866       -19.1260
  96   2.0000      -0.701162       -19.0796
  97   2.0000      -0.693983       -18.8842
  98   2.0000      -0.689028       -18.7494
  99   2.0000      -0.677522       -18.4363
 100   2.0000      -0.672779       -18.3072
 101   2.0000      -0.664849       -18.0915
 102   2.0000      -0.657589       -17.8939
 103   2.0000      -0.648505       -17.6467
 104   2.0000      -0.637347       -17.3431
 105   2.0000      -0.635559       -17.2944
 106   2.0000      -0.633683       -17.2434
 107   2.0000      -0.627269       -17.0689
 108   2.0000      -0.621406       -16.9093
 109   2.0000      -0.617591       -16.8055
 110   2.0000      -0.612800       -16.6751
 111   2.0000      -0.604562       -16.4510
 112   2.0000      -0.599680       -16.3181
 113   2.0000      -0.595172       -16.1955
 114   2.0000      -0.585519       -15.9328
 115   2.0000      -0.583610       -15.8808
 116   2.0000      -0.573089       -15.5945
 117   2.0000      -0.570828       -15.5330
 118   2.0000      -0.570392       -15.5212
 119   2.0000      -0.566652       -15.4194
 120   2.0000      -0.557093       -15.1593
 121   2.0000      -0.555658       -15.1202
 122   2.0000      -0.550772       -14.9873
 123   2.0000      -0.548732       -14.9318
 124   2.0000      -0.547699       -14.9037
 125   2.0000      -0.541086       -14.7237
 126   2.0000      -0.531879       -14.4732
 127   2.0000      -0.530390       -14.4327
 128   2.0000      -0.528663       -14.3857
 129   2.0000      -0.527436       -14.3523
 130   2.0000      -0.521891       -14.2014
 131   2.0000      -0.517337       -14.0775
 132   2.0000      -0.515594       -14.0300
 133   2.0000      -0.510982       -13.9045
 134   2.0000      -0.505017       -13.7422
 135   2.0000      -0.504491       -13.7279
 136   2.0000      -0.493709       -13.4345
 137   2.0000      -0.491027       -13.3615
 138   2.0000      -0.490049       -13.3349
 139   2.0000      -0.486501       -13.2384
 140   2.0000      -0.483181       -13.1480
 141   2.0000      -0.479925       -13.0594
 142   2.0000      -0.476157       -12.9569
 143   2.0000      -0.472840       -12.8666
 144   2.0000      -0.471330       -12.8255
 145   2.0000      -0.469379       -12.7725
 146   2.0000      -0.468541       -12.7497
 147   2.0000      -0.466026       -12.6812
 148   2.0000      -0.464284       -12.6338
 149   2.0000      -0.461026       -12.5452
 150   2.0000      -0.458317       -12.4714
 151   2.0000      -0.456512       -12.4223
 152   2.0000      -0.454436       -12.3658
 153   2.0000      -0.453017       -12.3272
 154   2.0000      -0.450519       -12.2592
 155   2.0000      -0.448122       -12.1940
 156   2.0000      -0.443460       -12.0672
 157   2.0000      -0.442353       -12.0370
 158   2.0000      -0.440517       -11.9871
 159   2.0000      -0.437880       -11.9153
 160   2.0000      -0.436187       -11.8693
 161   2.0000      -0.433605       -11.7990
 162   2.0000      -0.429467       -11.6864
 163   2.0000      -0.427401       -11.6302
 164   2.0000      -0.422307       -11.4916
 165   2.0000      -0.421191       -11.4612
 166   2.0000      -0.416919       -11.3449
 167   2.0000      -0.413567       -11.2537
 168   2.0000      -0.412673       -11.2294
 169   2.0000      -0.407268       -11.0823
 170   2.0000      -0.399186       -10.8624
 171   2.0000      -0.398554       -10.8452
 172   2.0000      -0.395758       -10.7691
 173   2.0000      -0.389589       -10.6013
 174   2.0000      -0.380515       -10.3543
 175   2.0000      -0.372948       -10.1484
 176   2.0000      -0.371695       -10.1143
 177   2.0000      -0.367609       -10.0032
 178   2.0000      -0.365408        -9.9432
 179   2.0000      -0.360117        -9.7993
 180   2.0000      -0.331123        -9.0103
 181   2.0000      -0.327041        -8.8992
 182   2.0000      -0.320519        -8.7218
 183   2.0000      -0.318804        -8.6751
 184   2.0000      -0.314652        -8.5621
 185   2.0000      -0.300350        -8.1729
 186   2.0000      -0.293515        -7.9870
 187   2.0000      -0.292628        -7.9628
 188   2.0000      -0.281854        -7.6696
 189   2.0000      -0.261425        -7.1137
 190   2.0000      -0.248873        -6.7722
 191   2.0000      -0.242432        -6.5969
 192   0.0000      -0.048307        -1.3145
 193   0.0000      -0.019390        -0.5276
 194   0.0000      -0.009633        -0.2621
 195   0.0000       0.017523         0.4768
 196   0.0000       0.026340         0.7168

MULLIKEN ATOMIC CHARGES
-----------------------
   0 C :   -0.113410
   1 C :    0.270353
   2 C :    0.119427
   3 C :    0.125419
   4 C :   -0.035749
   5 C :   -0.000721
   6 N :   -0.037476
   7 C :   -0.000840
   8 C :   -0.030622
   9 N :   -0.002338
  10 F :   -0.183831
  11 F :   -0.178264
  12 C :    0.006785
  13 C :   -0.000120
  14 C :   -0.052517
  15 S :    0.133178
  16 C :   -0.115774
  17 C :    0.027461
  18 C :   -0.085014
  19 C :    0.175859
  20 C :    0.170503
  21 C :   -0.055642
  22 C :    0.051109
  23 C :    0.031351
  24 C :    0.008107
  25 C :   -0.083759
  26 C :    0.168328
  27 C :    0.160716
  28 C :   -0.028650
  29 O :   -0.330930
  30 C :    0.134868
  31 C :    0.022614
  32 O :   -0.314376
  33 C :    0.176936
  34 C :    0.016726
  35 O :   -0.308583
  36 C :    0.172700
  37 C :    0.016851
  38 O :   -0.336987
  39 C :    0.171676
  40 C :   -0.025078
  41 C :    0.106260
  42 C :   -0.019259
  43 C :   -0.048950
  44 C :    0.174386
  45 C :   -0.047281
  46 C :   -0.026641
  47 C :   -0.103886
  48 S :    0.095479
  49 C :   -0.065958
  50 C :    0.047001
  51 C :   -0.007786
  52 H :   -0.017705
  53 H :   -0.011982
  54 H :   -0.024480
  55 H :   -0.043900
  56 H :   -0.023888
  57 H :   -0.015857
  58 H :   -0.026774
  59 H :   -0.027888
  60 H :   -0.015863
  61 H :    0.017614
  62 H :    0.017812
  63 H :    0.025648
  64 H :    0.017022
  65 H :    0.026394
  66 H :    0.003754
  67 H :    0.012354
  68 H :    0.017292
  69 H :    0.008483
  70 H :    0.021017
  71 H :    0.009651
  72 H :    0.015809
  73 H :    0.018977
  74 H :    0.009457
  75 H :    0.017985
  76 H :    0.002819
  77 H :    0.016045
  78 H :    0.031387
  79 H :    0.035866
  80 H :    0.015685
  81 H :   -0.023360
  82 H :   -0.012021
  83 H :   -0.026551
  84 H :   -0.011209
  85 H :    0.026964
  86 H :   -0.011653
  87 H :   -0.018556
Sum of atomic charges:    0.0000000

LOEWDIN ATOMIC CHARGES
----------------------
   0 C :   -0.046554
   1 C :    0.064822
   2 C :    0.063581
   3 C :   -0.056715
   4 C :   -0.017889
   5 C :   -0.014597
   6 N :   -0.059735
   7 C :    0.018546
   8 C :    0.015326
   9 N :   -0.040094
  10 F :   -0.058662
  11 F :   -0.050463
  12 C :   -0.045706
  13 C :   -0.065329
  14 C :   -0.169340
  15 S :    0.483280
  16 C :   -0.173106
  17 C :   -0.060501
  18 C :   -0.039661
  19 C :    0.021188
  20 C :    0.048208
  21 C :   -0.041301
  22 C :   -0.013623
  23 C :   -0.054976
  24 C :   -0.014735
  25 C :   -0.068020
  26 C :    0.028033
  27 C :    0.036839
  28 C :   -0.020747
  29 O :   -0.105130
  30 C :    0.081617
  31 C :   -0.060146
  32 O :   -0.108142
  33 C :    0.082510
  34 C :   -0.064449
  35 O :   -0.102167
  36 C :    0.083308
  37 C :   -0.065127
  38 O :   -0.110061
  39 C :    0.078096
  40 C :   -0.073112
  41 C :   -0.040905
  42 C :   -0.012161
  43 C :   -0.024829
  44 C :   -0.035663
  45 C :   -0.014213
  46 C :   -0.023416
  47 C :   -0.167743
  48 S :    0.431674
  49 C :   -0.185301
  50 C :   -0.064715
  51 C :   -0.062717
  52 H :    0.044966
  53 H :    0.027883
  54 H :    0.026265
  55 H :    0.021227
  56 H :    0.032453
  57 H :    0.030970
  58 H :    0.027973
  59 H :    0.029088
  60 H :    0.035632
  61 H :    0.013380
  62 H :    0.013330
  63 H :    0.029140
  64 H :    0.030967
  65 H :    0.029365
  66 H :    0.009321
  67 H :    0.010457
  68 H :    0.025787
  69 H :    0.026844
  70 H :    0.027303
  71 H :    0.011145
  72 H :    0.013309
  73 H :    0.026276
  74 H :    0.027361
  75 H :    0.025883
  76 H :    0.005636
  77 H :    0.024344
  78 H :    0.027267
  79 H :    0.035147
  80 H :    0.026557
  81 H :    0.029495
  82 H :    0.020921
  83 H :    0.027586
  84 H :    0.022551
  85 H :    0.023000
  86 H :    0.029498
  87 H :    0.026399

  Mayer bond orders larger than 0.100000
B(  0-C ,  1-C ) :   1.3911 B(  0-C ,  3-C ) :   0.1193 B(  0-C ,  5-C ) :   1.1959
B(  0-C , 52-H ) :   1.0373 B(  1-C ,  2-C ) :   1.1937 B(  1-C , 10-F ) :   1.1058
B(  2-C ,  3-C ) :   1.3768 B(  2-C , 11-F ) :   1.1387 B(  3-C ,  4-C ) :   1.1727
B(  3-C , 16-C ) :   1.0694 B(  4-C ,  5-C ) :   1.2344 B(  4-C ,  6-N ) :   1.4322
B(  5-C ,  9-N ) :   1.3981 B(  6-N ,  7-C ) :   1.6643 B(  7-C ,  8-C ) :   1.1405
B(  7-C , 17-C ) :   0.9939 B(  8-C ,  9-N ) :   1.7023 B(  8-C , 23-C ) :   0.9871
B( 12-C , 13-C ) :   1.2480 B( 12-C , 16-C ) :   1.5223 B( 12-C , 53-H ) :   0.9944
B( 13-C , 14-C ) :   1.5243 B( 13-C , 54-H ) :   0.9969 B( 14-C , 15-S ) :   1.1260
B( 14-C , 16-C ) :   0.1021 B( 14-C , 41-C ) :   1.0288 B( 15-S , 16-C ) :   1.1358
B( 17-C , 18-C ) :   1.3315 B( 17-C , 22-C ) :   1.3626 B( 18-C , 19-C ) :   1.2982
B( 18-C , 55-H ) :   1.0066 B( 19-C , 20-C ) :   1.3015 B( 19-C , 38-O ) :   1.1031
B( 20-C , 21-C ) :   1.3833 B( 20-C , 35-O ) :   1.1734 B( 21-C , 22-C ) :   1.3786
B( 21-C , 56-H ) :   0.9969 B( 22-C , 57-H ) :   0.9861 B( 23-C , 24-C ) :   1.3806
B( 23-C , 28-C ) :   1.3320 B( 24-C , 25-C ) :   1.3134 B( 24-C , 58-H ) :   1.0006
B( 25-C , 26-C ) :   1.3109 B( 25-C , 59-H ) :   0.9986 B( 26-C , 27-C ) :   1.3064
B( 26-C , 29-O ) :   1.1190 B( 27-C , 28-C ) :   1.4178 B( 27-C , 32-O ) :   1.1637
B( 28-C , 60-H ) :   0.9923 B( 29-O , 30-C ) :   0.9481 B( 30-C , 31-C ) :   1.0971
B( 30-C , 61-H ) :   0.9506 B( 30-C , 62-H ) :   0.9503 B( 31-C , 63-H ) :   0.9694
B( 31-C , 64-H ) :   0.9608 B( 31-C , 65-H ) :   0.9689 B( 32-O , 33-C ) :   0.9291
B( 33-C , 34-C ) :   1.0911 B( 33-C , 66-H ) :   0.9572 B( 33-C , 67-H ) :   0.9578
B( 34-C , 68-H ) :   0.9678 B( 34-C , 69-H ) :   0.9625 B( 34-C , 70-H ) :   0.9685
B( 35-O , 36-C ) :   0.9256 B( 36-C , 37-C ) :   1.0885 B( 36-C , 71-H ) :   0.9593
B( 36-C , 72-H ) :   0.9582 B( 37-C , 73-H ) :   0.9676 B( 37-C , 74-H ) :   0.9629
B( 37-C , 75-H ) :   0.9682 B( 38-O , 39-C ) :   0.9484 B( 39-C , 40-C ) :   1.1144
B( 39-C , 76-H ) :   0.9427 B( 39-C , 77-H ) :   0.9524 B( 40-C , 78-H ) :   0.9631
B( 40-C , 79-H ) :   0.9589 B( 40-C , 80-H ) :   0.9584 B( 41-C , 42-C ) :   1.3608
B( 41-C , 46-C ) :   1.3478 B( 42-C , 43-C ) :   1.4062 B( 42-C , 81-H ) :   0.9941
B( 43-C , 44-C ) :   1.3274 B( 43-C , 82-H ) :   0.9858 B( 44-C , 45-C ) :   1.3514
B( 44-C , 47-C ) :   1.0693 B( 45-C , 46-C ) :   1.3963 B( 45-C , 83-H ) :   0.9964
B( 46-C , 84-H ) :   0.9817 B( 47-C , 48-S ) :   1.1389 B( 47-C , 51-C ) :   1.5546
B( 48-S , 49-C ) :   1.1603 B( 49-C , 50-C ) :   1.5765 B( 49-C , 85-H ) :   0.9744
B( 50-C , 51-C ) :   1.2509 B( 50-C , 86-H ) :   0.9941 B( 51-C , 87-H ) :   0.9910

-----------------------------------------------------------------------------
         ABSORPTION SPECTRUM VIA TRANSITION ELECTRIC DIPOLE MOMENTS
-----------------------------------------------------------------------------
State   Energy  Wavelength   fosc         T2         TX        TY        TZ
        (cm-1)    (nm)                  (au**2)     (au)      (au)      (au)
-----------------------------------------------------------------------------
   0   24912.7    401.4   0.424594439   5.61085   1.49271  -1.76909  -0.50297
   1   27152.0    368.3   0.503773899   6.10815   1.37480   1.96563   0.59528
   2   29634.2    337.4   0.047886470   0.53198  -0.09990   0.69886  -0.18328
   3   30587.9    326.9   0.066324127   0.71383  -0.27619  -0.72951  -0.32461
   4   32372.4    308.9   0.205070752   2.08547  -0.19996  -1.15487  -0.84366
   5   33184.6    301.3   0.887632355   8.80586  -1.25060  -2.66590  -0.36723
   6   34066.3    293.5   0.087870727   0.84917   0.58654  -0.67577   0.22018
   7   34878.4    286.7   0.134701580   1.27143   0.93810   0.18746   0.59687
   8   35039.4    285.4   0.125221744   1.17652   1.03108   0.28843  -0.17379
   9   36282.8    275.6   0.329345324   2.98831   1.66057  -0.36536   0.31199
  10   36605.0    273.2   0.053194764   0.47841  -0.50127  -0.31129  -0.36089
  11   36888.5    271.1   0.026912586   0.24018  -0.07693   0.47774  -0.07766
  12   37929.6    263.6   0.065596230   0.56935   0.72388   0.06576   0.20252
  13   39890.9    250.7   0.008900558   0.07345  -0.16165  -0.17128  -0.13412
  14   39955.5    250.3   0.051403890   0.42354   0.61148  -0.13362   0.17826

FINAL SINGLE POINT ENERGY     -3025.595295094635

DIPOLE MOMENT
-------------
                                X             Y             Z
Electronic contribution:     79.24152      -5.12802      15.43923
Nuclear contribution   :    -80.86993       5.20593     -15.98097
                        -----------------------------------------
Total Dipole Moment    :     -1.62841       0.07791      -0.54175
                        -----------------------------------------
Magnitude (a.u.)       :      1.71793
Magnitude (Debye)      :      4.36663

Rotational constants in cm-1:     0.001906     0.000985     0.000714
Rotational constants in MHz :    57.152567    29.530606    21.412874

                             ****ORCA TERMINATED NORMALLY****
TOTAL RUN TIME: 0 days 0 hours 7 minutes 13 seconds 294 msec
