                         Program Version 4.2.0 -  RELEASE  -
|  1> # ORCA input file
|  2> # SCF done       -150.612747475935          0.000246981856
|  3> ! CAM-B3LYP def2-SVP def2/J RIJCOSX Grid4 TightSCF
|  4> %maxcore 5000
|  5> %tddft
|  6>     Mode sTDDFT
|  7>     Ethresh 5.0
|  8>     maxcore 5000
|  9> end
| 10>
| 11> %pal
| 12>   nprocs 6
| 13>   end
| 14> * xyz 0 1
| 15>    C        0.63959         1.47137        -0.16889
| 16>    C        1.81830         0.77799        -0.12969
| 17>    C        1.86568        -0.62513        -0.09286
| 18>    C        0.71344        -1.39703        -0.09734
| 19>    C       -0.51852        -0.67949        -0.16101
| 20>    C       -0.55937         0.73833        -0.19122
| 21>    N       -1.66095        -1.37499        -0.14808
| 22>    C       -2.81671        -0.75308        -0.17319
| 23>    C       -2.85197         0.67637        -0.28683
| 24>    N       -1.74154         1.37649        -0.27056
| 25>    F        2.98379         1.44751        -0.11440
| 26>    F        3.08467        -1.19283        -0.03269
| 27>    C        1.74099        -3.72053         0.04323
| 28>    C        1.34693        -5.04881         0.22205
| 29>    C       -0.01439        -5.19676         0.34297
| 30>    S       -0.82442        -3.65846         0.20050
| 31>    C        0.68981        -2.82979         0.01162
| 32>    C       -4.00905        -1.59108        -0.04632
| 33>    C       -4.07624        -2.78172        -0.76562
| 34>    C       -5.16144        -3.63878        -0.66989
| 35>    C       -6.20507        -3.30749         0.22047
| 36>    C       -6.10952        -2.12474         0.95426
| 37>    C       -5.04347        -1.26366         0.82289
| 38>    C       -4.09933         1.42413        -0.45552
| 39>    C       -4.24801         2.66244         0.15670
| 40>    C       -5.42428         3.37107         0.01137
| 41>    C       -6.47782         2.88843        -0.75879
| 42>    C       -6.31550         1.65559        -1.42636
| 43>    C       -5.13303         0.94831        -1.25438
| 44>    O       -7.66784         3.54529        -0.89697
| 45>    C       -7.84389         4.80510        -0.27981
| 46>    C       -9.24013         5.29314        -0.63482
| 47>    O       -7.21809         1.03579        -2.23177
| 48>    C       -8.33991         1.72074        -2.76430
| 49>    C       -8.96554         0.80622        -3.80706
| 50>    O       -7.32503        -4.02616         0.48204
| 51>    C       -7.70295        -5.15144        -0.29333
| 52>    C       -9.05798        -5.61115         0.22420
| 53>    O       -5.27523        -4.79463        -1.39688
| 54>    C       -4.44143        -5.01212        -2.51980
| 55>    C       -3.14068        -5.72871        -2.17397
| 56>    C       -0.79025        -6.39206         0.57252
| 57>    C       -2.11035        -6.30419         1.03513
| 58>    C       -2.87852        -7.41896         1.27359
| 59>    C       -2.36619        -8.70492         1.06437
| 60>    C       -1.05656        -8.81316         0.59225
| 61>    C       -0.30297        -7.68632         0.35723
| 62>    C       -3.15242        -9.88734         1.33054
| 63>    S       -2.49013       -11.47778         1.06489
| 64>    C       -3.94022       -12.22087         1.59762
| 65>    C       -4.88021       -11.30843         1.95836
| 66>    C       -4.43490        -9.98216         1.80703
| 67>    F        0.94892        -7.86995        -0.11542
| 68>    H        0.62123         2.54758        -0.18817
| 69>    H        2.77033        -3.43177        -0.05785
| 70>    H        2.04989        -5.85896         0.28041
| 71>    H       -3.25017        -3.01701        -1.41530
| 72>    H       -6.91852        -1.90205         1.63164
| 73>    H       -5.00157        -0.35842         1.40770
| 74>    H       -3.44523         3.05646         0.75854
| 75>    H       -5.52141         4.31807         0.51723
| 76>    H       -5.04071         0.01473        -1.78550
| 77>    H       -7.08958         5.51504        -0.64577
| 78>    H       -7.74231         4.71045         0.81001
| 79>    H       -9.34130         5.38087        -1.71317
| 80>    H       -9.41825         6.26303        -0.17967
| 81>    H       -9.98362         4.58798        -0.27343
| 82>    H       -8.02411         2.66329        -3.22581
| 83>    H       -9.06289         1.94327        -1.97223
| 84>    H       -8.24889         0.59310        -4.59565
| 85>    H       -9.84074         1.28320        -4.23884
| 86>    H       -9.26035        -0.13220        -3.34571
| 87>    H       -6.96240        -5.95192        -0.19129
| 88>    H       -7.77514        -4.87511        -1.35124
| 89>    H       -8.98535        -5.87127         1.27666
| 90>    H       -9.39175        -6.47951        -0.33646
| 91>    H       -9.78828        -4.81381         0.11608
| 92>    H       -4.24291        -4.06682        -3.03805
| 93>    H       -5.04101        -5.64784        -3.18041
| 94>    H       -2.51427        -5.12102        -1.52749
| 95>    H       -2.59518        -5.94891        -3.08759
| 96>    H       -3.35703        -6.66157        -1.65931
| 97>    H       -2.52690        -5.32392         1.21396
| 98>    H       -3.88740        -7.29251         1.63154
| 99>    H       -0.61710        -9.78123         0.40503
|100>    H       -4.00742       -13.29057         1.61120
|101>    H       -5.85763       -11.57166         2.32155
|102>    H       -5.04673        -9.13197         2.04722
|103> *
|104>
|105>                          ****END OF INPUT****

CARTESIAN COORDINATES (ANGSTROEM)
---------------------------------
  C      0.639590    1.471370   -0.168890
  C      1.818300    0.777990   -0.129690
  C      1.865680   -0.625130   -0.092860
  C      0.713440   -1.397030   -0.097340
  C     -0.518520   -0.679490   -0.161010
  C     -0.559370    0.738330   -0.191220
  N     -1.660950   -1.374990   -0.148080
  C     -2.816710   -0.753080   -0.173190
  C     -2.851970    0.676370   -0.286830
  N     -1.741540    1.376490   -0.270560
  F      2.983790    1.447510   -0.114400
  F      3.084670   -1.192830   -0.032690
  C      1.740990   -3.720530    0.043230
  C      1.346930   -5.048810    0.222050
  C     -0.014390   -5.196760    0.342970
  S     -0.824420   -3.658460    0.200500
  C      0.689810   -2.829790    0.011620
  C     -4.009050   -1.591080   -0.046320
  C     -4.076240   -2.781720   -0.765620
  C     -5.161440   -3.638780   -0.669890
  C     -6.205070   -3.307490    0.220470
  C     -6.109520   -2.124740    0.954260
  C     -5.043470   -1.263660    0.822890
  C     -4.099330    1.424130   -0.455520
  C     -4.248010    2.662440    0.156700
  C     -5.424280    3.371070    0.011370
  C     -6.477820    2.888430   -0.758790
  C     -6.315500    1.655590   -1.426360
  C     -5.133030    0.948310   -1.254380
  O     -7.667840    3.545290   -0.896970
  C     -7.843890    4.805100   -0.279810
  C     -9.240130    5.293140   -0.634820
  O     -7.218090    1.035790   -2.231770
  C     -8.339910    1.720740   -2.764300
  C     -8.965540    0.806220   -3.807060
  O     -7.325030   -4.026160    0.482040
  C     -7.702950   -5.151440   -0.293330
  C     -9.057980   -5.611150    0.224200
  O     -5.275230   -4.794630   -1.396880
  C     -4.441430   -5.012120   -2.519800
  C     -3.140680   -5.728710   -2.173970
  C     -0.790250   -6.392060    0.572520
  C     -2.110350   -6.304190    1.035130
  C     -2.878520   -7.418960    1.273590
  C     -2.366190   -8.704920    1.064370
  C     -1.056560   -8.813160    0.592250
  C     -0.302970   -7.686320    0.357230
  C     -3.152420   -9.887340    1.330540
  S     -2.490130  -11.477780    1.064890
  C     -3.940220  -12.220870    1.597620
  C     -4.880210  -11.308430    1.958360
  C     -4.434900   -9.982160    1.807030
  F      0.948920   -7.869950   -0.115420
  H      0.621230    2.547580   -0.188170
  H      2.770330   -3.431770   -0.057850
  H      2.049890   -5.858960    0.280410
  H     -3.250170   -3.017010   -1.415300
  H     -6.918520   -1.902050    1.631640
  H     -5.001570   -0.358420    1.407700
  H     -3.445230    3.056460    0.758540
  H     -5.521410    4.318070    0.517230
  H     -5.040710    0.014730   -1.785500
  H     -7.089580    5.515040   -0.645770
  H     -7.742310    4.710450    0.810010
  H     -9.341300    5.380870   -1.713170
  H     -9.418250    6.263030   -0.179670
  H     -9.983620    4.587980   -0.273430
  H     -8.024110    2.663290   -3.225810
  H     -9.062890    1.943270   -1.972230
  H     -8.248890    0.593100   -4.595650
  H     -9.840740    1.283200   -4.238840
  H     -9.260350   -0.132200   -3.345710
  H     -6.962400   -5.951920   -0.191290
  H     -7.775140   -4.875110   -1.351240
  H     -8.985350   -5.871270    1.276660
  H     -9.391750   -6.479510   -0.336460
  H     -9.788280   -4.813810    0.116080
  H     -4.242910   -4.066820   -3.038050
  H     -5.041010   -5.647840   -3.180410
  H     -2.514270   -5.121020   -1.527490
  H     -2.595180   -5.948910   -3.087590
  H     -3.357030   -6.661570   -1.659310
  H     -2.526900   -5.323920    1.213960
  H     -3.887400   -7.292510    1.631540
  H     -0.617100   -9.781230    0.405030
  H     -4.007420  -13.290570    1.611200
  H     -5.857630  -11.571660    2.321550
  H     -5.046730   -9.131970    2.047220

 Total Charge           Charge          ....    0
 Multiplicity           Mult            ....    1
 Number of Electrons    NEL             ....  392
 Basis Dimension        Dim             ....  925

ORBITAL ENERGIES
----------------

  NO   OCC          E(Eh)            E(eV)
   0   2.0000     -88.947798     -2420.3926
   1   2.0000     -88.938209     -2420.1317
   2   2.0000     -24.788333      -674.5248
   3   2.0000     -24.781732      -674.3452
   4   2.0000     -24.772694      -674.0993
   5   2.0000     -19.242245      -523.6081
   6   2.0000     -19.234097      -523.3864
   7   2.0000     -19.229956      -523.2737
   8   2.0000     -19.227091      -523.1957
   9   2.0000     -14.418488      -392.3470
  10   2.0000     -14.413649      -392.2153
  11   2.0000     -10.365553      -282.0610
  12   2.0000     -10.365179      -282.0508
  13   2.0000     -10.349245      -281.6173
  14   2.0000     -10.329101      -281.0691
  15   2.0000     -10.326088      -280.9871
  16   2.0000     -10.325737      -280.9776
  17   2.0000     -10.324353      -280.9399
  18   2.0000     -10.322123      -280.8792
  19   2.0000     -10.322113      -280.8790
  20   2.0000     -10.319280      -280.8019
  21   2.0000     -10.316416      -280.7240
  22   2.0000     -10.314253      -280.6651
  23   2.0000     -10.313873      -280.6548
  24   2.0000     -10.306417      -280.4519
  25   2.0000     -10.305831      -280.4359
  26   2.0000     -10.299633      -280.2673
  27   2.0000     -10.293556      -280.1019
  28   2.0000     -10.289937      -280.0034
  29   2.0000     -10.286739      -279.9164
  30   2.0000     -10.286271      -279.9037
  31   2.0000     -10.281532      -279.7747
  32   2.0000     -10.279006      -279.7060
  33   2.0000     -10.278349      -279.6881
  34   2.0000     -10.270801      -279.4827
  35   2.0000     -10.270347      -279.4703
  36   2.0000     -10.267377      -279.3895
  37   2.0000     -10.266689      -279.3708
  38   2.0000     -10.266280      -279.3597
  39   2.0000     -10.266245      -279.3587
  40   2.0000     -10.265950      -279.3507
  41   2.0000     -10.264591      -279.3137
  42   2.0000     -10.264280      -279.3053
  43   2.0000     -10.263939      -279.2960
  44   2.0000     -10.260856      -279.2121
  45   2.0000     -10.260021      -279.1894
  46   2.0000     -10.258881      -279.1583
  47   2.0000     -10.258231      -279.1406
  48   2.0000     -10.256335      -279.0891
  49   2.0000     -10.252187      -278.9762
  50   2.0000     -10.250105      -278.9195
  51   2.0000     -10.249507      -278.9033
  52   2.0000     -10.248821      -278.8846
  53   2.0000      -8.043641      -218.8786
  54   2.0000      -8.030547      -218.5223
  55   2.0000      -6.012841      -163.6177
  56   2.0000      -6.008632      -163.5032
  57   2.0000      -6.006051      -163.4330
  58   2.0000      -6.000224      -163.2744
  59   2.0000      -5.995405      -163.1433
  60   2.0000      -5.992887      -163.0748
  61   2.0000      -1.307597       -35.5815
  62   2.0000      -1.290034       -35.1036
  63   2.0000      -1.285633       -34.9838
  64   2.0000      -1.150798       -31.3148
  65   2.0000      -1.145339       -31.1663
  66   2.0000      -1.125972       -30.6392
  67   2.0000      -1.125167       -30.6173
  68   2.0000      -1.079196       -29.3664
  69   2.0000      -1.004698       -27.3392
  70   2.0000      -0.978978       -26.6393
  71   2.0000      -0.973065       -26.4784
  72   2.0000      -0.959927       -26.1210
  73   2.0000      -0.945921       -25.7398
  74   2.0000      -0.938965       -25.5505
  75   2.0000      -0.937796       -25.5187
  76   2.0000      -0.882992       -24.0274
  77   2.0000      -0.881649       -23.9909
  78   2.0000      -0.866836       -23.5878
  79   2.0000      -0.857520       -23.3343
  80   2.0000      -0.854020       -23.2391
  81   2.0000      -0.850512       -23.1436
  82   2.0000      -0.846616       -23.0376
  83   2.0000      -0.835387       -22.7320
  84   2.0000      -0.820976       -22.3399
  85   2.0000      -0.818603       -22.2753
  86   2.0000      -0.814568       -22.1655
  87   2.0000      -0.812064       -22.0974
  88   2.0000      -0.808296       -21.9948
  89   2.0000      -0.802905       -21.8481
  90   2.0000      -0.796595       -21.6764
  91   2.0000      -0.774915       -21.0865
  92   2.0000      -0.753668       -20.5083
  93   2.0000      -0.746389       -20.3103
  94   2.0000      -0.731155       -19.8957
  95   2.0000      -0.726181       -19.7604
  96   2.0000      -0.722631       -19.6638
  97   2.0000      -0.705140       -19.1878
  98   2.0000      -0.701544       -19.0900
  99   2.0000      -0.696545       -18.9540
 100   2.0000      -0.695350       -18.9214
 101   2.0000      -0.682085       -18.5605
 102   2.0000      -0.674754       -18.3610
 103   2.0000      -0.667404       -18.1610
 104   2.0000      -0.662376       -18.0242
 105   2.0000      -0.652166       -17.7463
 106   2.0000      -0.646053       -17.5800
 107   2.0000      -0.638899       -17.3853
 108   2.0000      -0.636927       -17.3317
 109   2.0000      -0.633648       -17.2424
 110   2.0000      -0.622928       -16.9507
 111   2.0000      -0.619145       -16.8478
 112   2.0000      -0.614603       -16.7242
 113   2.0000      -0.608251       -16.5514
 114   2.0000      -0.601059       -16.3557
 115   2.0000      -0.598171       -16.2771
 116   2.0000      -0.588255       -16.0072
 117   2.0000      -0.582807       -15.8590
 118   2.0000      -0.577222       -15.7070
 119   2.0000      -0.574373       -15.6295
 120   2.0000      -0.572226       -15.5711
 121   2.0000      -0.570869       -15.5341
 122   2.0000      -0.569899       -15.5077
 123   2.0000      -0.565122       -15.3778
 124   2.0000      -0.560792       -15.2599
 125   2.0000      -0.557944       -15.1824
 126   2.0000      -0.554783       -15.0964
 127   2.0000      -0.550562       -14.9816
 128   2.0000      -0.548754       -14.9324
 129   2.0000      -0.543770       -14.7967
 130   2.0000      -0.534417       -14.5422
 131   2.0000      -0.532902       -14.5010
 132   2.0000      -0.528320       -14.3763
 133   2.0000      -0.521604       -14.1936
 134   2.0000      -0.519474       -14.1356
 135   2.0000      -0.517194       -14.0736
 136   2.0000      -0.515277       -14.0214
 137   2.0000      -0.513033       -13.9603
 138   2.0000      -0.507592       -13.8123
 139   2.0000      -0.499224       -13.5846
 140   2.0000      -0.493148       -13.4192
 141   2.0000      -0.489225       -13.3125
 142   2.0000      -0.487194       -13.2572
 143   2.0000      -0.485982       -13.2242
 144   2.0000      -0.480644       -13.0790
 145   2.0000      -0.477719       -12.9994
 146   2.0000      -0.476895       -12.9770
 147   2.0000      -0.475640       -12.9428
 148   2.0000      -0.472685       -12.8624
 149   2.0000      -0.472165       -12.8483
 150   2.0000      -0.469286       -12.7699
 151   2.0000      -0.468000       -12.7349
 152   2.0000      -0.465604       -12.6697
 153   2.0000      -0.464974       -12.6526
 154   2.0000      -0.458812       -12.4849
 155   2.0000      -0.458378       -12.4731
 156   2.0000      -0.456210       -12.4141
 157   2.0000      -0.454985       -12.3808
 158   2.0000      -0.452969       -12.3259
 159   2.0000      -0.450299       -12.2533
 160   2.0000      -0.446365       -12.1462
 161   2.0000      -0.443824       -12.0771
 162   2.0000      -0.442927       -12.0527
 163   2.0000      -0.436605       -11.8806
 164   2.0000      -0.435373       -11.8471
 165   2.0000      -0.433145       -11.7865
 166   2.0000      -0.430708       -11.7202
 167   2.0000      -0.429524       -11.6879
 168   2.0000      -0.425711       -11.5842
 169   2.0000      -0.424260       -11.5447
 170   2.0000      -0.418100       -11.3771
 171   2.0000      -0.414732       -11.2854
 172   2.0000      -0.413931       -11.2636
 173   2.0000      -0.412642       -11.2286
 174   2.0000      -0.402800       -10.9608
 175   2.0000      -0.402126       -10.9424
 176   2.0000      -0.398514       -10.8441
 177   2.0000      -0.396153       -10.7799
 178   2.0000      -0.383535       -10.4365
 179   2.0000      -0.376889       -10.2557
 180   2.0000      -0.373120       -10.1531
 181   2.0000      -0.370337       -10.0774
 182   2.0000      -0.364037        -9.9059
 183   2.0000      -0.354934        -9.6583
 184   2.0000      -0.331292        -9.0149
 185   2.0000      -0.321276        -8.7424
 186   2.0000      -0.319164        -8.6849
 187   2.0000      -0.311069        -8.4646
 188   2.0000      -0.308089        -8.3835
 189   2.0000      -0.302978        -8.2445
 190   2.0000      -0.298112        -8.1120
 191   2.0000      -0.296043        -8.0557
 192   2.0000      -0.283899        -7.7253
 193   2.0000      -0.263700        -7.1756
 194   2.0000      -0.254132        -6.9153
 195   2.0000      -0.239865        -6.5270
 196   0.0000      -0.052796        -1.4367
 197   0.0000      -0.019194        -0.5223
 198   0.0000      -0.006750        -0.1837
 199   0.0000       0.018419         0.5012
 200   0.0000       0.034258         0.9322

MULLIKEN ATOMIC CHARGES
-----------------------
   0 C :   -0.125359
   1 C :    0.277200
   2 C :    0.111754
   3 C :    0.141697
   4 C :   -0.030861
   5 C :    0.008429
   6 N :   -0.059681
   7 C :    0.016140
   8 C :   -0.016852
   9 N :    0.007256
  10 F :   -0.182711
  11 F :   -0.175393
  12 C :    0.001395
  13 C :   -0.004127
  14 C :   -0.039332
  15 S :    0.118430
  16 C :   -0.112833
  17 C :   -0.024345
  18 C :   -0.085489
  19 C :    0.167670
  20 C :    0.174858
  21 C :   -0.054598
  22 C :    0.067863
  23 C :    0.022100
  24 C :    0.014888
  25 C :   -0.087961
  26 C :    0.168125
  27 C :    0.162434
  28 C :   -0.026177
  29 O :   -0.330227
  30 C :    0.134984
  31 C :    0.022348
  32 O :   -0.315088
  33 C :    0.175580
  34 C :    0.016379
  35 O :   -0.310479
  36 C :    0.170397
  37 C :    0.014007
  38 O :   -0.336982
  39 C :    0.160785
  40 C :    0.000701
  41 C :    0.073472
  42 C :   -0.046789
  43 C :   -0.033273
  44 C :    0.192471
  45 C :   -0.123359
  46 C :    0.216082
  47 C :   -0.110057
  48 S :    0.099610
  49 C :   -0.066585
  50 C :    0.049774
  51 C :   -0.005481
  52 F :   -0.192760
  53 H :   -0.018329
  54 H :   -0.012468
  55 H :   -0.017406
  56 H :   -0.026324
  57 H :   -0.021257
  58 H :   -0.017992
  59 H :   -0.027777
  60 H :   -0.026909
  61 H :   -0.018103
  62 H :    0.017940
  63 H :    0.017910
  64 H :    0.025650
  65 H :    0.017243
  66 H :    0.026737
  67 H :    0.003623
  68 H :    0.014199
  69 H :    0.017207
  70 H :    0.009259
  71 H :    0.020460
  72 H :    0.017211
  73 H :    0.008185
  74 H :    0.018446
  75 H :    0.011847
  76 H :    0.019836
  77 H :    0.011447
  78 H :    0.014155
  79 H :    0.018445
  80 H :    0.016285
  81 H :    0.029486
  82 H :    0.000069
  83 H :   -0.027971
  84 H :   -0.009462
  85 H :    0.027685
  86 H :   -0.012959
  87 H :   -0.016397
Sum of atomic charges:   -0.0000000

LOEWDIN ATOMIC CHARGES
----------------------
   0 C :   -0.049030
   1 C :    0.068101
   2 C :    0.063353
   3 C :   -0.052115
   4 C :   -0.016820
   5 C :   -0.012532
   6 N :   -0.054881
   7 C :    0.021377
   8 C :    0.015097
   9 N :   -0.040146
  10 F :   -0.057075
  11 F :   -0.047771
  12 C :   -0.046511
  13 C :   -0.060903
  14 C :   -0.173230
  15 S :    0.487125
  16 C :   -0.178682
  17 C :   -0.056777
  18 C :   -0.046915
  19 C :    0.021532
  20 C :    0.044814
  21 C :   -0.038668
  22 C :   -0.015086
  23 C :   -0.053847
  24 C :   -0.014404
  25 C :   -0.068078
  26 C :    0.028181
  27 C :    0.036069
  28 C :   -0.021247
  29 O :   -0.104714
  30 C :    0.081835
  31 C :   -0.060092
  32 O :   -0.108900
  33 C :    0.082512
  34 C :   -0.064536
  35 O :   -0.104703
  36 C :    0.082879
  37 C :   -0.065379
  38 O :   -0.108768
  39 C :    0.079864
  40 C :   -0.071372
  41 C :   -0.067909
  42 C :   -0.007540
  43 C :   -0.026122
  44 C :   -0.027340
  45 C :   -0.056460
  46 C :    0.096760
  47 C :   -0.168106
  48 S :    0.434009
  49 C :   -0.184641
  50 C :   -0.064681
  51 C :   -0.059878
  52 F :   -0.065480
  53 H :    0.045407
  54 H :    0.026718
  55 H :    0.024862
  56 H :    0.027710
  57 H :    0.033174
  58 H :    0.030657
  59 H :    0.028347
  60 H :    0.029274
  61 H :    0.035079
  62 H :    0.013456
  63 H :    0.013470
  64 H :    0.029151
  65 H :    0.031104
  66 H :    0.029511
  67 H :    0.009587
  68 H :    0.010732
  69 H :    0.025723
  70 H :    0.027123
  71 H :    0.027062
  72 H :    0.011592
  73 H :    0.011827
  74 H :    0.026077
  75 H :    0.027919
  76 H :    0.026540
  77 H :    0.012423
  78 H :    0.021931
  79 H :    0.015009
  80 H :    0.032058
  81 H :    0.030506
  82 H :    0.026583
  83 H :    0.028504
  84 H :    0.028772
  85 H :    0.023242
  86 H :    0.029283
  87 H :    0.027418

  Mayer bond orders larger than 0.100000
B(  0-C ,  1-C ) :   1.3874 B(  0-C ,  3-C ) :   0.1181 B(  0-C ,  5-C ) :   1.1898
B(  0-C , 53-H ) :   1.0406 B(  1-C ,  2-C ) :   1.1944 B(  1-C , 10-F ) :   1.1060
B(  2-C ,  3-C ) :   1.3530 B(  2-C , 11-F ) :   1.1414 B(  3-C ,  4-C ) :   1.1659
B(  3-C , 16-C ) :   1.1071 B(  4-C ,  5-C ) :   1.2446 B(  4-C ,  6-N ) :   1.4157
B(  5-C ,  9-N ) :   1.4102 B(  6-N ,  7-C ) :   1.6357 B(  7-C ,  8-C ) :   1.1753
B(  7-C , 17-C ) :   0.9743 B(  8-C ,  9-N ) :   1.6901 B(  8-C , 23-C ) :   0.9797
B( 12-C , 13-C ) :   1.2418 B( 12-C , 16-C ) :   1.4958 B( 12-C , 54-H ) :   0.9956
B( 13-C , 14-C ) :   1.5149 B( 13-C , 55-H ) :   0.9983 B( 14-C , 15-S ) :   1.0841
B( 14-C , 16-C ) :   0.1001 B( 14-C , 41-C ) :   1.0714 B( 15-S , 16-C ) :   1.1244
B( 17-C , 18-C ) :   1.3369 B( 17-C , 22-C ) :   1.3701 B( 18-C , 19-C ) :   1.2930
B( 18-C , 56-H ) :   0.9983 B( 19-C , 20-C ) :   1.3070 B( 19-C , 38-O ) :   1.1076
B( 20-C , 21-C ) :   1.3890 B( 20-C , 35-O ) :   1.1687 B( 21-C , 22-C ) :   1.3675
B( 21-C , 57-H ) :   0.9965 B( 22-C , 58-H ) :   0.9929 B( 23-C , 24-C ) :   1.3859
B( 23-C , 28-C ) :   1.3362 B( 24-C , 25-C ) :   1.3142 B( 24-C , 59-H ) :   1.0007
B( 25-C , 26-C ) :   1.3121 B( 25-C , 60-H ) :   0.9981 B( 26-C , 27-C ) :   1.3067
B( 26-C , 29-O ) :   1.1216 B( 27-C , 28-C ) :   1.4109 B( 27-C , 32-O ) :   1.1639
B( 28-C , 61-H ) :   0.9919 B( 29-O , 30-C ) :   0.9474 B( 30-C , 31-C ) :   1.0975
B( 30-C , 62-H ) :   0.9508 B( 30-C , 63-H ) :   0.9501 B( 31-C , 64-H ) :   0.9694
B( 31-C , 65-H ) :   0.9609 B( 31-C , 66-H ) :   0.9688 B( 32-O , 33-C ) :   0.9285
B( 33-C , 34-C ) :   1.0918 B( 33-C , 67-H ) :   0.9568 B( 33-C , 68-H ) :   0.9575
B( 34-C , 69-H ) :   0.9677 B( 34-C , 70-H ) :   0.9625 B( 34-C , 71-H ) :   0.9687
B( 35-O , 36-C ) :   0.9252 B( 36-C , 37-C ) :   1.0884 B( 36-C , 72-H ) :   0.9584
B( 36-C , 73-H ) :   0.9586 B( 37-C , 74-H ) :   0.9686 B( 37-C , 75-H ) :   0.9628
B( 37-C , 76-H ) :   0.9677 B( 38-O , 39-C ) :   0.9423 B( 39-C , 40-C ) :   1.1209
B( 39-C , 77-H ) :   0.9442 B( 39-C , 78-H ) :   0.9553 B( 40-C , 79-H ) :   0.9592
B( 40-C , 80-H ) :   0.9544 B( 40-C , 81-H ) :   0.9567 B( 41-C , 42-C ) :   1.3128
B( 41-C , 46-C ) :   1.3179 B( 42-C , 43-C ) :   1.4191 B( 42-C , 82-H ) :   0.9842
B( 43-C , 44-C ) :   1.3361 B( 43-C , 83-H ) :   0.9966 B( 44-C , 45-C ) :   1.2849
B( 44-C , 47-C ) :   1.0777 B( 45-C , 46-C ) :   1.3970 B( 45-C , 84-H ) :   0.9866
B( 46-C , 52-F ) :   1.1042 B( 47-C , 48-S ) :   1.1393 B( 47-C , 51-C ) :   1.5547
B( 48-S , 49-C ) :   1.1623 B( 49-C , 50-C ) :   1.5767 B( 49-C , 85-H ) :   0.9741
B( 50-C , 51-C ) :   1.2517 B( 50-C , 86-H ) :   0.9929 B( 51-C , 87-H ) :   0.9904

-----------------------------------------------------------------------------
         ABSORPTION SPECTRUM VIA TRANSITION ELECTRIC DIPOLE MOMENTS
-----------------------------------------------------------------------------
State   Energy  Wavelength   fosc         T2         TX        TY        TZ
        (cm-1)    (nm)                  (au**2)     (au)      (au)      (au)
-----------------------------------------------------------------------------
   0   23868.5    419.0   0.536358314   7.39784  -0.44513   2.65825  -0.36527
   1   26783.4    373.4   0.360224288   4.42775  -1.81676  -1.04855   0.16638
   2   29347.4    340.7   0.033405290   0.37473  -0.30907   0.52002  -0.09373
   3   29747.9    336.2   0.022778900   0.25209   0.15880   0.46817   0.08766
   4   31824.2    314.2   0.823330494   8.51711   1.14072   2.64533  -0.46699
   5   33559.1    298.0   0.191445385   1.87806  -0.92048  -0.97201   0.29321
   6   34772.3    287.6   0.073779007   0.69851  -0.17815  -0.80299   0.14824
   7   34912.6    286.4   0.000596125   0.00562  -0.06115   0.04184   0.01144
   8   35343.4    282.9   0.117306956   1.09267  -0.94224   0.41688  -0.17628
   9   35841.5    279.0   0.268795040   2.46894  -0.93942  -1.25605   0.09358
  10   36294.0    275.5   0.034921912   0.31677  -0.47131  -0.30250   0.05593
  11   36728.3    272.3   0.187374734   1.67952  -1.22357   0.40372  -0.13933
  12   37452.0    267.0   0.269677910   2.37053   1.49294  -0.34903  -0.14088
  13   40282.0    248.3   0.051875130   0.42396  -0.62236   0.06865  -0.17865

FINAL SINGLE POINT ENERGY     -3124.736730931902

DIPOLE MOMENT
-------------
                                X             Y             Z
Electronic contribution:     91.02168     -15.21795      15.68929
Nuclear contribution   :    -93.44328      15.80331     -16.01107
                        -----------------------------------------
Total Dipole Moment    :     -2.42161       0.58536      -0.32178
                        -----------------------------------------
Magnitude (a.u.)       :      2.51204
Magnitude (Debye)      :      6.38510

Rotational constants in cm-1:     0.001958     0.000985     0.000690
Rotational constants in MHz :    58.691139    29.537542    20.680725

                             ****ORCA TERMINATED NORMALLY****
TOTAL RUN TIME: 0 days 0 hours 6 minutes 23 seconds 423 msec
