                         Program Version 4.2.0 -  RELEASE  -
|  1> # ORCA input file
|  2> # SCF done       -154.841010240663          0.000562663676
|  3> ! CAM-B3LYP def2-SVP def2/J RIJCOSX Grid4 TightSCF
|  4> %maxcore 5000
|  5> %tddft
|  6>     Mode sTDDFT
|  7>     Ethresh 5.0
|  8>     maxcore 5000
|  9> end
| 10>
| 11> %pal
| 12>   nprocs 6
| 13>   end
| 14> * xyz 0 1
| 15>    C        0.59743         1.54710        -0.00664
| 16>    C        1.77581         0.85489         0.06096
| 17>    C        1.82491        -0.54907         0.06577
| 18>    C        0.67464        -1.32025         0.00384
| 19>    C       -0.55663        -0.60382        -0.07639
| 20>    C       -0.59890         0.81395        -0.08660
| 21>    N       -1.69803        -1.29972        -0.09525
| 22>    C       -2.85709        -0.68175        -0.15056
| 23>    C       -2.88663         0.74833        -0.27733
| 24>    N       -1.77881         1.44912        -0.21125
| 25>    F        2.93845         1.52551         0.13167
| 26>    F        3.04068        -1.11942         0.15179
| 27>    C        1.69403        -3.65469         0.06719
| 28>    C        1.28881        -4.98879         0.16461
| 29>    C       -0.07594        -5.13055         0.24908
| 30>    S       -0.87293        -3.58106         0.17656
| 31>    C        0.64817        -2.75711         0.05963
| 32>    C       -4.04025        -1.52943        -0.03128
| 33>    C       -4.02264        -2.78440        -0.63947
| 34>    C       -5.06541        -3.68542        -0.50725
| 35>    C       -6.16864        -3.32477         0.29811
| 36>    C       -6.17722        -2.06183         0.89192
| 37>    C       -5.14369        -1.16583         0.73370
| 38>    C       -4.12101         1.49651        -0.51936
| 39>    C       -4.29829         2.74345         0.06715
| 40>    C       -5.46232         3.45284        -0.15326
| 41>    C       -6.47308         2.96388        -0.97519
| 42>    C       -6.28049         1.71983        -1.61389
| 43>    C       -5.11149         1.01194        -1.36630
| 44>    O       -7.64750         3.62794        -1.19216
| 45>    C       -7.85995         4.88532        -0.58173
| 46>    C       -9.23917         5.36767        -1.00415
| 47>    O       -7.13208         1.09013        -2.46414
| 48>    C       -8.28429         1.72747        -2.99002
| 49>    C       -8.87917         0.78270        -4.02377
| 50>    O       -7.26624        -4.07042         0.56090
| 51>    C       -7.30350        -5.46891         0.31316
| 52>    C       -8.54454        -6.00992         1.00732
| 53>    O       -5.08511        -4.91669        -1.10644
| 54>    C       -4.05191        -5.29265        -1.99435
| 55>    C       -4.18960        -4.64604        -3.36950
| 56>    C       -0.87450        -6.32520         0.37305
| 57>    C       -2.20097        -6.24420         0.81104
| 58>    C       -2.99221        -7.36370         0.91683
| 59>    C       -2.53584        -8.64965         0.59764
| 60>    C       -1.20773        -8.73024         0.16618
| 61>    C       -0.41476        -7.61119         0.06193
| 62>    C       -3.34989        -9.83864         0.69973
| 63>    S       -2.62357       -11.40966         0.46965
| 64>    C       -4.12596       -12.19055         0.73123
| 65>    C       -5.12739       -11.30582         0.97803
| 66>    C       -4.69045        -9.96837         0.96118
| 67>    F        0.84642        -7.78767        -0.38233
| 68>    F       -4.25346        -7.18005         1.36298
| 69>    H        0.57839         2.62358        -0.00742
| 70>    H        2.72653        -3.36658         0.00151
| 71>    H        1.98405        -5.80749         0.19066
| 72>    H       -3.16036        -3.02926        -1.23531
| 73>    H       -7.03417        -1.81200         1.49704
| 74>    H       -5.17657        -0.20925         1.23032
| 75>    H       -3.52882         3.14329         0.70734
| 76>    H       -5.58286         4.40796         0.33180
| 77>    H       -4.99470         0.06881        -1.87541
| 78>    H       -7.09198         5.59982        -0.90836
| 79>    H       -7.81200         4.78859         0.51154
| 80>    H       -9.28724         5.45872        -2.08580
| 81>    H       -9.44444         6.33505        -0.55519
| 82>    H       -9.99609         4.65763        -0.68255
| 83>    H       -8.01146         2.68005        -3.45780
| 84>    H       -9.00958         1.92304        -2.19283
| 85>    H       -8.16029         0.59704        -4.81723
| 86>    H       -9.77721         1.22012        -4.45030
| 87>    H       -9.12965        -0.16550        -3.55645
| 88>    H       -6.40465        -5.94641         0.71375
| 89>    H       -7.35554        -5.66154        -0.76375
| 90>    H       -8.48721        -5.81734         2.07526
| 91>    H       -8.62102        -7.08077         0.84196
| 92>    H       -9.43359        -5.52335         0.61502
| 93>    H       -4.16334        -6.37787        -2.08267
| 94>    H       -3.06660        -5.08617        -1.56021
| 95>    H       -5.15565        -4.89570        -3.80139
| 96>    H       -3.40442        -5.01408        -4.02400
| 97>    H       -4.11401        -3.56387        -3.30059
| 98>    H       -2.61804        -5.28706         1.08500
| 99>    H       -0.78610        -9.68767        -0.09883
|100>    H       -4.17547       -13.26039         0.68598
|101>    H       -6.14552       -11.59595         1.16686
|102>    H       -5.35131        -9.13967         1.13195
|103> *
|104>
|105>                          ****END OF INPUT****

CARTESIAN COORDINATES (ANGSTROEM)
---------------------------------
  C      0.597430    1.547100   -0.006640
  C      1.775810    0.854890    0.060960
  C      1.824910   -0.549070    0.065770
  C      0.674640   -1.320250    0.003840
  C     -0.556630   -0.603820   -0.076390
  C     -0.598900    0.813950   -0.086600
  N     -1.698030   -1.299720   -0.095250
  C     -2.857090   -0.681750   -0.150560
  C     -2.886630    0.748330   -0.277330
  N     -1.778810    1.449120   -0.211250
  F      2.938450    1.525510    0.131670
  F      3.040680   -1.119420    0.151790
  C      1.694030   -3.654690    0.067190
  C      1.288810   -4.988790    0.164610
  C     -0.075940   -5.130550    0.249080
  S     -0.872930   -3.581060    0.176560
  C      0.648170   -2.757110    0.059630
  C     -4.040250   -1.529430   -0.031280
  C     -4.022640   -2.784400   -0.639470
  C     -5.065410   -3.685420   -0.507250
  C     -6.168640   -3.324770    0.298110
  C     -6.177220   -2.061830    0.891920
  C     -5.143690   -1.165830    0.733700
  C     -4.121010    1.496510   -0.519360
  C     -4.298290    2.743450    0.067150
  C     -5.462320    3.452840   -0.153260
  C     -6.473080    2.963880   -0.975190
  C     -6.280490    1.719830   -1.613890
  C     -5.111490    1.011940   -1.366300
  O     -7.647500    3.627940   -1.192160
  C     -7.859950    4.885320   -0.581730
  C     -9.239170    5.367670   -1.004150
  O     -7.132080    1.090130   -2.464140
  C     -8.284290    1.727470   -2.990020
  C     -8.879170    0.782700   -4.023770
  O     -7.266240   -4.070420    0.560900
  C     -7.303500   -5.468910    0.313160
  C     -8.544540   -6.009920    1.007320
  O     -5.085110   -4.916690   -1.106440
  C     -4.051910   -5.292650   -1.994350
  C     -4.189600   -4.646040   -3.369500
  C     -0.874500   -6.325200    0.373050
  C     -2.200970   -6.244200    0.811040
  C     -2.992210   -7.363700    0.916830
  C     -2.535840   -8.649650    0.597640
  C     -1.207730   -8.730240    0.166180
  C     -0.414760   -7.611190    0.061930
  C     -3.349890   -9.838640    0.699730
  S     -2.623570  -11.409660    0.469650
  C     -4.125960  -12.190550    0.731230
  C     -5.127390  -11.305820    0.978030
  C     -4.690450   -9.968370    0.961180
  F      0.846420   -7.787670   -0.382330
  F     -4.253460   -7.180050    1.362980
  H      0.578390    2.623580   -0.007420
  H      2.726530   -3.366580    0.001510
  H      1.984050   -5.807490    0.190660
  H     -3.160360   -3.029260   -1.235310
  H     -7.034170   -1.812000    1.497040
  H     -5.176570   -0.209250    1.230320
  H     -3.528820    3.143290    0.707340
  H     -5.582860    4.407960    0.331800
  H     -4.994700    0.068810   -1.875410
  H     -7.091980    5.599820   -0.908360
  H     -7.812000    4.788590    0.511540
  H     -9.287240    5.458720   -2.085800
  H     -9.444440    6.335050   -0.555190
  H     -9.996090    4.657630   -0.682550
  H     -8.011460    2.680050   -3.457800
  H     -9.009580    1.923040   -2.192830
  H     -8.160290    0.597040   -4.817230
  H     -9.777210    1.220120   -4.450300
  H     -9.129650   -0.165500   -3.556450
  H     -6.404650   -5.946410    0.713750
  H     -7.355540   -5.661540   -0.763750
  H     -8.487210   -5.817340    2.075260
  H     -8.621020   -7.080770    0.841960
  H     -9.433590   -5.523350    0.615020
  H     -4.163340   -6.377870   -2.082670
  H     -3.066600   -5.086170   -1.560210
  H     -5.155650   -4.895700   -3.801390
  H     -3.404420   -5.014080   -4.024000
  H     -4.114010   -3.563870   -3.300590
  H     -2.618040   -5.287060    1.085000
  H     -0.786100   -9.687670   -0.098830
  H     -4.175470  -13.260390    0.685980
  H     -6.145520  -11.595950    1.166860
  H     -5.351310   -9.139670    1.131950

 Total Charge           Charge          ....    0
 Multiplicity           Mult            ....    1
 Number of Electrons    NEL             ....  400
 Basis Dimension        Dim             ....  934

ORBITAL ENERGIES
----------------

  NO   OCC          E(Eh)            E(eV)
   0   2.0000     -88.950561     -2420.4678
   1   2.0000     -88.942005     -2420.2350
   2   2.0000     -24.790636      -674.5875
   3   2.0000     -24.783139      -674.3835
   4   2.0000     -24.782680      -674.3710
   5   2.0000     -24.777939      -674.2420
   6   2.0000     -19.242126      -523.6049
   7   2.0000     -19.233781      -523.3778
   8   2.0000     -19.227303      -523.2015
   9   2.0000     -19.227038      -523.1943
  10   2.0000     -14.419372      -392.3711
  11   2.0000     -14.414684      -392.2435
  12   2.0000     -10.367900      -282.1249
  13   2.0000     -10.366790      -282.0947
  14   2.0000     -10.355510      -281.7878
  15   2.0000     -10.354714      -281.7661
  16   2.0000     -10.329368      -281.0764
  17   2.0000     -10.325943      -280.9832
  18   2.0000     -10.324008      -280.9305
  19   2.0000     -10.323804      -280.9250
  20   2.0000     -10.323133      -280.9067
  21   2.0000     -10.322777      -280.8971
  22   2.0000     -10.320401      -280.8324
  23   2.0000     -10.315806      -280.7074
  24   2.0000     -10.315247      -280.6921
  25   2.0000     -10.315042      -280.6866
  26   2.0000     -10.305389      -280.4239
  27   2.0000     -10.301423      -280.3160
  28   2.0000     -10.300963      -280.3034
  29   2.0000     -10.298979      -280.2495
  30   2.0000     -10.298232      -280.2291
  31   2.0000     -10.294318      -280.1226
  32   2.0000     -10.294108      -280.1169
  33   2.0000     -10.288928      -279.9760
  34   2.0000     -10.283000      -279.8146
  35   2.0000     -10.281796      -279.7819
  36   2.0000     -10.280449      -279.7452
  37   2.0000     -10.279518      -279.7199
  38   2.0000     -10.266926      -279.3773
  39   2.0000     -10.266916      -279.3770
  40   2.0000     -10.266512      -279.3660
  41   2.0000     -10.266457      -279.3645
  42   2.0000     -10.264428      -279.3093
  43   2.0000     -10.264349      -279.3071
  44   2.0000     -10.262084      -279.2455
  45   2.0000     -10.261941      -279.2416
  46   2.0000     -10.260141      -279.1926
  47   2.0000     -10.260069      -279.1907
  48   2.0000     -10.258928      -279.1596
  49   2.0000     -10.258013      -279.1347
  50   2.0000     -10.254890      -279.0497
  51   2.0000     -10.254866      -279.0491
  52   2.0000     -10.248493      -278.8757
  53   2.0000     -10.246430      -278.8195
  54   2.0000      -8.046458      -218.9553
  55   2.0000      -8.034514      -218.6302
  56   2.0000      -6.015721      -163.6961
  57   2.0000      -6.011450      -163.5799
  58   2.0000      -6.008779      -163.5072
  59   2.0000      -6.004179      -163.3820
  60   2.0000      -5.999336      -163.2502
  61   2.0000      -5.996848      -163.1825
  62   2.0000      -1.309600       -35.6360
  63   2.0000      -1.295256       -35.2457
  64   2.0000      -1.291853       -35.1531
  65   2.0000      -1.291626       -35.1469
  66   2.0000      -1.150754       -31.3136
  67   2.0000      -1.144449       -31.1420
  68   2.0000      -1.126310       -30.6484
  69   2.0000      -1.123592       -30.5745
  70   2.0000      -1.080311       -29.3968
  71   2.0000      -1.006048       -27.3760
  72   2.0000      -0.983676       -26.7672
  73   2.0000      -0.976228       -26.5645
  74   2.0000      -0.964077       -26.2339
  75   2.0000      -0.951970       -25.9044
  76   2.0000      -0.940003       -25.5788
  77   2.0000      -0.937224       -25.5032
  78   2.0000      -0.889297       -24.1990
  79   2.0000      -0.882077       -24.0025
  80   2.0000      -0.870262       -23.6810
  81   2.0000      -0.859188       -23.3797
  82   2.0000      -0.854342       -23.2478
  83   2.0000      -0.849821       -23.1248
  84   2.0000      -0.845647       -23.0112
  85   2.0000      -0.837645       -22.7935
  86   2.0000      -0.822192       -22.3730
  87   2.0000      -0.821320       -22.3493
  88   2.0000      -0.818131       -22.2625
  89   2.0000      -0.815953       -22.2032
  90   2.0000      -0.810970       -22.0676
  91   2.0000      -0.803687       -21.8694
  92   2.0000      -0.796739       -21.6804
  93   2.0000      -0.779773       -21.2187
  94   2.0000      -0.755440       -20.5566
  95   2.0000      -0.747390       -20.3375
  96   2.0000      -0.734091       -19.9756
  97   2.0000      -0.731147       -19.8955
  98   2.0000      -0.725336       -19.7374
  99   2.0000      -0.711746       -19.3676
 100   2.0000      -0.706244       -19.2179
 101   2.0000      -0.700307       -19.0563
 102   2.0000      -0.695999       -18.9391
 103   2.0000      -0.681023       -18.5316
 104   2.0000      -0.675203       -18.3732
 105   2.0000      -0.667953       -18.1759
 106   2.0000      -0.663807       -18.0631
 107   2.0000      -0.656005       -17.8508
 108   2.0000      -0.654421       -17.8077
 109   2.0000      -0.644825       -17.5466
 110   2.0000      -0.641430       -17.4542
 111   2.0000      -0.638623       -17.3778
 112   2.0000      -0.627086       -17.0639
 113   2.0000      -0.620706       -16.8903
 114   2.0000      -0.619054       -16.8453
 115   2.0000      -0.610752       -16.6194
 116   2.0000      -0.608937       -16.5700
 117   2.0000      -0.601312       -16.3625
 118   2.0000      -0.598332       -16.2814
 119   2.0000      -0.591978       -16.1085
 120   2.0000      -0.585080       -15.9208
 121   2.0000      -0.583974       -15.8907
 122   2.0000      -0.576109       -15.6767
 123   2.0000      -0.574004       -15.6194
 124   2.0000      -0.572187       -15.5700
 125   2.0000      -0.570089       -15.5129
 126   2.0000      -0.560803       -15.2602
 127   2.0000      -0.560014       -15.2388
 128   2.0000      -0.557538       -15.1714
 129   2.0000      -0.551764       -15.0142
 130   2.0000      -0.551111       -14.9965
 131   2.0000      -0.550205       -14.9718
 132   2.0000      -0.547901       -14.9091
 133   2.0000      -0.543722       -14.7954
 134   2.0000      -0.534776       -14.5520
 135   2.0000      -0.533820       -14.5260
 136   2.0000      -0.529096       -14.3974
 137   2.0000      -0.524483       -14.2719
 138   2.0000      -0.522423       -14.2159
 139   2.0000      -0.519633       -14.1399
 140   2.0000      -0.516773       -14.0621
 141   2.0000      -0.508854       -13.8466
 142   2.0000      -0.507488       -13.8094
 143   2.0000      -0.499490       -13.5918
 144   2.0000      -0.498040       -13.5524
 145   2.0000      -0.493879       -13.4391
 146   2.0000      -0.490350       -13.3431
 147   2.0000      -0.487866       -13.2755
 148   2.0000      -0.483440       -13.1551
 149   2.0000      -0.478783       -13.0283
 150   2.0000      -0.477665       -12.9979
 151   2.0000      -0.474058       -12.8998
 152   2.0000      -0.473314       -12.8795
 153   2.0000      -0.470655       -12.8072
 154   2.0000      -0.469244       -12.7688
 155   2.0000      -0.467482       -12.7208
 156   2.0000      -0.466724       -12.7002
 157   2.0000      -0.465496       -12.6668
 158   2.0000      -0.463948       -12.6247
 159   2.0000      -0.458101       -12.4656
 160   2.0000      -0.457884       -12.4596
 161   2.0000      -0.455656       -12.3990
 162   2.0000      -0.455461       -12.3937
 163   2.0000      -0.450991       -12.2721
 164   2.0000      -0.449719       -12.2375
 165   2.0000      -0.445102       -12.1119
 166   2.0000      -0.443551       -12.0696
 167   2.0000      -0.441889       -12.0244
 168   2.0000      -0.438771       -11.9396
 169   2.0000      -0.435870       -11.8606
 170   2.0000      -0.432234       -11.7617
 171   2.0000      -0.431072       -11.7301
 172   2.0000      -0.428902       -11.6710
 173   2.0000      -0.425336       -11.5740
 174   2.0000      -0.417481       -11.3602
 175   2.0000      -0.415949       -11.3185
 176   2.0000      -0.415693       -11.3116
 177   2.0000      -0.414285       -11.2733
 178   2.0000      -0.405979       -11.0472
 179   2.0000      -0.401545       -10.9266
 180   2.0000      -0.398176       -10.8349
 181   2.0000      -0.392498       -10.6804
 182   2.0000      -0.383111       -10.4250
 183   2.0000      -0.377729       -10.2785
 184   2.0000      -0.374672       -10.1953
 185   2.0000      -0.370196       -10.0735
 186   2.0000      -0.368047       -10.0151
 187   2.0000      -0.356669        -9.7055
 188   2.0000      -0.334569        -9.1041
 189   2.0000      -0.322287        -8.7699
 190   2.0000      -0.319223        -8.6865
 191   2.0000      -0.313353        -8.5268
 192   2.0000      -0.310387        -8.4461
 193   2.0000      -0.306195        -8.3320
 194   2.0000      -0.297444        -8.0939
 195   2.0000      -0.295656        -8.0452
 196   2.0000      -0.286667        -7.8006
 197   2.0000      -0.263224        -7.1627
 198   2.0000      -0.253120        -6.8877
 199   2.0000      -0.244280        -6.6472
 200   0.0000      -0.055730        -1.5165
 201   0.0000      -0.023797        -0.6475
 202   0.0000      -0.009478        -0.2579
 203   0.0000       0.016062         0.4371
 204   0.0000       0.032681         0.8893

MULLIKEN ATOMIC CHARGES
-----------------------
   0 C :   -0.123802
   1 C :    0.275625
   2 C :    0.113149
   3 C :    0.136379
   4 C :   -0.023494
   5 C :    0.008894
   6 N :   -0.070631
   7 C :    0.030086
   8 C :   -0.021658
   9 N :    0.007124
  10 F :   -0.182340
  11 F :   -0.174619
  12 C :    0.000814
  13 C :   -0.002338
  14 C :   -0.042467
  15 S :    0.114246
  16 C :   -0.103347
  17 C :   -0.017935
  18 C :   -0.097572
  19 C :    0.174634
  20 C :    0.175863
  21 C :   -0.055941
  22 C :    0.062224
  23 C :    0.024563
  24 C :    0.013612
  25 C :   -0.086936
  26 C :    0.167252
  27 C :    0.163556
  28 C :   -0.034257
  29 O :   -0.330226
  30 C :    0.134476
  31 C :    0.022916
  32 O :   -0.313606
  33 C :    0.175052
  34 C :    0.016247
  35 O :   -0.308506
  36 C :    0.168595
  37 C :    0.011707
  38 O :   -0.336482
  39 C :    0.150666
  40 C :   -0.007130
  41 C :    0.081418
  42 C :   -0.119978
  43 C :    0.218405
  44 C :    0.130613
  45 C :   -0.129373
  46 C :    0.224893
  47 C :   -0.115883
  48 S :    0.095453
  49 C :   -0.063137
  50 C :    0.048635
  51 C :   -0.008538
  52 F :   -0.190246
  53 F :   -0.188444
  54 H :   -0.017155
  55 H :   -0.011236
  56 H :   -0.016070
  57 H :   -0.022058
  58 H :   -0.022622
  59 H :   -0.017656
  60 H :   -0.027794
  61 H :   -0.026961
  62 H :   -0.015084
  63 H :    0.018017
  64 H :    0.017984
  65 H :    0.025998
  66 H :    0.017166
  67 H :    0.026603
  68 H :    0.005209
  69 H :    0.012784
  70 H :    0.017870
  71 H :    0.008966
  72 H :    0.022043
  73 H :    0.011939
  74 H :    0.012661
  75 H :    0.019273
  76 H :    0.009986
  77 H :    0.018375
  78 H :    0.021469
  79 H :    0.021849
  80 H :    0.022426
  81 H :    0.021967
  82 H :    0.024699
  83 H :    0.009760
  84 H :   -0.000770
  85 H :    0.029098
  86 H :   -0.011377
  87 H :   -0.005565
Sum of atomic charges:    0.0000000

LOEWDIN ATOMIC CHARGES
----------------------
   0 C :   -0.046426
   1 C :    0.067197
   2 C :    0.064825
   3 C :   -0.054286
   4 C :   -0.015900
   5 C :   -0.013265
   6 N :   -0.058590
   7 C :    0.024492
   8 C :    0.016163
   9 N :   -0.039568
  10 F :   -0.056836
  11 F :   -0.047297
  12 C :   -0.047564
  13 C :   -0.056406
  14 C :   -0.180415
  15 S :    0.491602
  16 C :   -0.174343
  17 C :   -0.060087
  18 C :   -0.049231
  19 C :    0.021741
  20 C :    0.047169
  21 C :   -0.040004
  22 C :   -0.014715
  23 C :   -0.054668
  24 C :   -0.015068
  25 C :   -0.067710
  26 C :    0.027843
  27 C :    0.037185
  28 C :   -0.021904
  29 O :   -0.104779
  30 C :    0.081734
  31 C :   -0.059986
  32 O :   -0.107306
  33 C :    0.082618
  34 C :   -0.064394
  35 O :   -0.102406
  36 C :    0.082418
  37 C :   -0.065458
  38 O :   -0.103400
  39 C :    0.076421
  40 C :   -0.070243
  41 C :   -0.057663
  42 C :   -0.041355
  43 C :    0.083705
  44 C :   -0.056305
  45 C :   -0.046674
  46 C :    0.085463
  47 C :   -0.171023
  48 S :    0.432593
  49 C :   -0.181599
  50 C :   -0.065265
  51 C :   -0.055374
  52 F :   -0.063911
  53 F :   -0.059089
  54 H :    0.045886
  55 H :    0.027354
  56 H :    0.025731
  57 H :    0.022647
  58 H :    0.032976
  59 H :    0.030968
  60 H :    0.028290
  61 H :    0.029368
  62 H :    0.035246
  63 H :    0.013434
  64 H :    0.013456
  65 H :    0.029279
  66 H :    0.031094
  67 H :    0.029495
  68 H :    0.009644
  69 H :    0.010695
  70 H :    0.025979
  71 H :    0.027052
  72 H :    0.027676
  73 H :    0.009856
  74 H :    0.011429
  75 H :    0.026268
  76 H :    0.027037
  77 H :    0.025829
  78 H :    0.025637
  79 H :    0.008375
  80 H :    0.028449
  81 H :    0.032531
  82 H :    0.026249
  83 H :    0.035934
  84 H :    0.031823
  85 H :    0.024021
  86 H :    0.029900
  87 H :    0.027733

  Mayer bond orders larger than 0.100000
B(  0-C ,  1-C ) :   1.3885 B(  0-C ,  3-C ) :   0.1185 B(  0-C ,  5-C ) :   1.1902
B(  0-C , 54-H ) :   1.0404 B(  1-C ,  2-C ) :   1.1935 B(  1-C , 10-F ) :   1.1060
B(  2-C ,  3-C ) :   1.3553 B(  2-C , 11-F ) :   1.1440 B(  3-C ,  4-C ) :   1.1672
B(  3-C , 16-C ) :   1.1032 B(  4-C ,  5-C ) :   1.2461 B(  4-C ,  6-N ) :   1.4118
B(  5-C ,  9-N ) :   1.4076 B(  6-N ,  7-C ) :   1.6267 B(  7-C ,  8-C ) :   1.1665
B(  7-C , 17-C ) :   0.9834 B(  8-C ,  9-N ) :   1.6944 B(  8-C , 23-C ) :   0.9814
B( 12-C , 13-C ) :   1.2426 B( 12-C , 16-C ) :   1.4989 B( 12-C , 55-H ) :   0.9956
B( 13-C , 14-C ) :   1.5157 B( 13-C , 56-H ) :   0.9988 B( 14-C , 15-S ) :   1.0798
B( 14-C , 16-C ) :   0.1001 B( 14-C , 41-C ) :   1.0793 B( 15-S , 16-C ) :   1.1264
B( 17-C , 18-C ) :   1.3324 B( 17-C , 22-C ) :   1.3709 B( 18-C , 19-C ) :   1.2984
B( 18-C , 57-H ) :   0.9892 B( 19-C , 20-C ) :   1.3034 B( 19-C , 38-O ) :   1.1053
B( 20-C , 21-C ) :   1.3909 B( 20-C , 35-O ) :   1.1782 B( 21-C , 22-C ) :   1.3676
B( 21-C , 58-H ) :   0.9957 B( 22-C , 59-H ) :   0.9898 B( 23-C , 24-C ) :   1.3849
B( 23-C , 28-C ) :   1.3376 B( 24-C , 25-C ) :   1.3145 B( 24-C , 60-H ) :   1.0008
B( 25-C , 26-C ) :   1.3125 B( 25-C , 61-H ) :   0.9982 B( 26-C , 27-C ) :   1.3058
B( 26-C , 29-O ) :   1.1218 B( 27-C , 28-C ) :   1.4107 B( 27-C , 32-O ) :   1.1672
B( 28-C , 62-H ) :   0.9918 B( 29-O , 30-C ) :   0.9469 B( 30-C , 31-C ) :   1.0975
B( 30-C , 63-H ) :   0.9508 B( 30-C , 64-H ) :   0.9500 B( 31-C , 65-H ) :   0.9693
B( 31-C , 66-H ) :   0.9607 B( 31-C , 67-H ) :   0.9689 B( 32-O , 33-C ) :   0.9278
B( 33-C , 34-C ) :   1.0902 B( 33-C , 68-H ) :   0.9576 B( 33-C , 69-H ) :   0.9581
B( 34-C , 70-H ) :   0.9680 B( 34-C , 71-H ) :   0.9625 B( 34-C , 72-H ) :   0.9686
B( 35-O , 36-C ) :   0.9181 B( 36-C , 37-C ) :   1.0896 B( 36-C , 73-H ) :   0.9546
B( 36-C , 74-H ) :   0.9574 B( 37-C , 75-H ) :   0.9682 B( 37-C , 76-H ) :   0.9631
B( 37-C , 77-H ) :   0.9683 B( 38-O , 39-C ) :   0.9468 B( 39-C , 40-C ) :   1.1107
B( 39-C , 78-H ) :   0.9560 B( 39-C , 79-H ) :   0.9404 B( 40-C , 80-H ) :   0.9627
B( 40-C , 81-H ) :   0.9623 B( 40-C , 82-H ) :   0.9652 B( 41-C , 42-C ) :   1.2757
B( 41-C , 46-C ) :   1.3101 B( 42-C , 43-C ) :   1.3904 B( 42-C , 83-H ) :   0.9885
B( 43-C , 44-C ) :   1.3122 B( 43-C , 53-F ) :   1.0702 B( 44-C , 45-C ) :   1.2709
B( 44-C , 47-C ) :   1.0865 B( 45-C , 46-C ) :   1.4002 B( 45-C , 84-H ) :   0.9856
B( 46-C , 52-F ) :   1.1094 B( 47-C , 48-S ) :   1.1350 B( 47-C , 51-C ) :   1.5535
B( 48-S , 49-C ) :   1.1633 B( 49-C , 50-C ) :   1.5736 B( 49-C , 85-H ) :   0.9742
B( 50-C , 51-C ) :   1.2419 B( 50-C , 86-H ) :   0.9937 B( 51-C , 87-H ) :   0.9951

-----------------------------------------------------------------------------
         ABSORPTION SPECTRUM VIA TRANSITION ELECTRIC DIPOLE MOMENTS
-----------------------------------------------------------------------------
State   Energy  Wavelength   fosc         T2         TX        TY        TZ
        (cm-1)    (nm)                  (au**2)     (au)      (au)      (au)
-----------------------------------------------------------------------------
   0   23858.7    419.1   0.414828393   5.72398   0.86575  -2.22343   0.17559
   1   26413.2    378.6   0.501613230   6.25206   1.67434   1.85210  -0.13554
   2   28790.8    347.3   0.050267124   0.57479  -0.26303   0.70433  -0.09760
   3   29311.8    341.2   0.015249129   0.17127  -0.14008  -0.36875  -0.12519
   4   31632.0    316.1   0.701708204   7.30307  -1.29053  -2.36897   0.15989
   5   33116.4    302.0   0.165199773   1.64226  -0.49516  -1.14369   0.29840
   6   33785.2    296.0   0.088187823   0.85933  -0.09349  -0.92040   0.05880
   7   34496.4    289.9   0.231957285   2.21365  -1.27752  -0.76113   0.04782
   8   35004.8    285.7   0.147879247   1.39077   0.17178   1.14433  -0.22753
   9   35424.5    282.3   0.012961235   0.12045   0.10781   0.32238  -0.07003
  10   35962.6    278.1   0.047900730   0.43850   0.65412   0.04195   0.09416
  11   36312.5    275.4   0.300256835   2.72215  -1.57936   0.40850  -0.24681
  12   36842.0    271.4   0.158712454   1.41822  -1.12410   0.38352   0.08678
  13   38855.2    257.4   0.034716996   0.29415  -0.41106  -0.30989   0.17072
  14   39448.5    253.5   0.009609292   0.08019  -0.13318  -0.21842   0.12145
  15   39649.0    252.2   0.042341257   0.35157   0.55177   0.05627   0.20965

FINAL SINGLE POINT ENERGY     -3223.879266164880

DIPOLE MOMENT
-------------
                                X             Y             Z
Electronic contribution:     88.71842     -26.07406      21.28731
Nuclear contribution   :    -90.57263      26.54921     -21.68083
                        -----------------------------------------
Total Dipole Moment    :     -1.85421       0.47515      -0.39352
                        -----------------------------------------
Magnitude (a.u.)       :      1.95415
Magnitude (Debye)      :      4.96706

Rotational constants in cm-1:     0.001950     0.000976     0.000687
Rotational constants in MHz :    58.449674    29.264984    20.608966

                             ****ORCA TERMINATED NORMALLY****
TOTAL RUN TIME: 0 days 0 hours 7 minutes 31 seconds 755 msec
