                         Program Version 4.2.0 -  RELEASE  -
|  1> # ORCA input file
|  2> # SCF done       -122.318197116607          0.000302117680
|  3> ! CAM-B3LYP def2-SVP def2/J RIJCOSX Grid4 TightSCF
|  4> %maxcore 5000
|  5> %tddft
|  6>     Mode sTDDFT
|  7>     Ethresh 5.0
|  8>     maxcore 5000
|  9> end
| 10>
| 11> %pal
| 12>   nprocs 6
| 13>   end
| 14> * xyz 0 1
| 15>    C       -2.43597         0.33767         1.84399
| 16>    C       -2.57555         0.29238         3.21178
| 17>    C       -1.36463        -0.04736         3.86095
| 18>    C       -0.31587        -0.25406         3.02230
| 19>    S       -0.79309        -0.03646         1.37281
| 20>    C       -3.86578         0.54268         3.93305
| 21>    C       -3.99542        -0.24637         5.23262
| 22>    C       -3.40091         0.69927         0.84516
| 23>    C       -3.55363         0.22863        -0.44125
| 24>    C       -4.59310         0.87573        -1.13335
| 25>    C       -5.24110         1.84074        -0.40680
| 26>    S       -4.56227         1.96112         1.19005
| 27>    C       -2.74352        -0.85535        -1.08098
| 28>    C       -1.68090        -0.27056        -2.01226
| 29>    C       -9.01244         4.30716        -3.11189
| 30>    C       -9.60902         3.59213        -4.13083
| 31>    C      -10.38171         4.40270        -4.97956
| 32>    C      -10.38290         5.73273        -4.64564
| 33>    S       -9.41202         6.00608        -3.23060
| 34>    C       -9.54071         2.10461        -4.29814
| 35>    C      -10.28738         1.38556        -3.17423
| 36>    C      -13.12280         8.73388        -7.97395
| 37>    C      -14.15490         8.12009        -8.64452
| 38>    C      -14.60985         8.88869        -9.74261
| 39>    C      -13.94682        10.06098        -9.92138
| 40>    S      -12.71827        10.26432        -8.71910
| 41>    C      -14.75265         6.80503        -8.24360
| 42>    C      -16.24071         6.69568        -8.56352
| 43>    C       -8.12799         3.85039        -2.07851
| 44>    C       -7.99782         4.29835        -0.77934
| 45>    C       -6.98449         3.62669        -0.07501
| 46>    C       -6.31854         2.67810        -0.80797
| 47>    S       -6.96181         2.59183        -2.41993
| 48>    C       -8.87699         5.31978        -0.12435
| 49>    C      -10.29930         4.79010         0.05981
| 50>    C      -12.35405         8.25789        -6.85931
| 51>    C      -11.79136         8.96101        -5.81618
| 52>    C      -11.05675         8.13765        -4.94405
| 53>    C      -11.03756         6.81362        -5.29850
| 54>    S      -11.96040         6.55690        -6.75037
| 55>    C      -11.92264        10.43308        -5.57893
| 56>    C      -10.66172        11.17577        -6.02261
| 57>    C      -14.16326        11.09903       -10.96343
| 58>    C        1.08386        -0.62248         3.36181
| 59>    H       -1.27144        -0.13584         4.92812
| 60>    H       -4.69593         0.28039         3.27316
| 61>    H       -3.95203         1.61253         4.14911
| 62>    H       -3.82076        -1.30521         5.05463
| 63>    H       -4.99764        -0.12560         5.63739
| 64>    H       -3.28691         0.10312         5.97911
| 65>    H       -4.86877         0.63584        -2.14574
| 66>    H       -3.41479        -1.49434        -1.66021
| 67>    H       -2.26346        -1.46918        -0.31782
| 68>    H       -2.14707         0.33678        -2.78485
| 69>    H       -1.11731        -1.06901        -2.48867
| 70>    H       -0.98977         0.35439        -1.45186
| 71>    H      -10.93088         4.02312        -5.82379
| 72>    H       -8.50094         1.77387        -4.31496
| 73>    H       -9.99080         1.84320        -5.25745
| 74>    H       -9.83814         1.61312        -2.21040
| 75>    H      -10.25214         0.30957        -3.32656
| 76>    H      -11.32890         1.69972        -3.15074
| 77>    H      -15.41143         8.57892       -10.38831
| 78>    H      -14.60795         6.66370        -7.17013
| 79>    H      -14.21310         5.99835        -8.75035
| 80>    H      -16.78320         7.54121        -8.14621
| 81>    H      -16.64316         5.78151        -8.13318
| 82>    H      -16.41287         6.66661        -9.63630
| 83>    H       -6.74213         3.83063         0.95361
| 84>    H       -8.90261         6.23377        -0.71973
| 85>    H       -8.45311         5.56703         0.85049
| 86>    H      -10.74912         4.56057        -0.90303
| 87>    H      -10.91563         5.53210         0.56123
| 88>    H      -10.29003         3.88276         0.66001
| 89>    H      -10.55394         8.50538        -4.06632
| 90>    H      -12.07911        10.59977        -4.51018
| 91>    H      -12.78705        10.82681        -6.11506
| 92>    H       -9.79231        10.79873        -5.48873
| 93>    H      -10.76079        12.23955        -5.82094
| 94>    H      -10.49820        11.03917        -7.08886
| 95>    H      -14.96176        10.79095       -11.63422
| 96>    H      -13.25515        11.25545       -11.54530
| 97>    H      -14.43404        12.05161       -10.50809
| 98>    H        1.19540        -0.70273         4.44053
| 99>    H        1.78050         0.12900         2.99071
|100>    H        1.35207        -1.57663         2.90828
|101> *
|102>
|103>                          ****END OF INPUT****

CARTESIAN COORDINATES (ANGSTROEM)
---------------------------------
  C     -2.435970    0.337670    1.843990
  C     -2.575550    0.292380    3.211780
  C     -1.364630   -0.047360    3.860950
  C     -0.315870   -0.254060    3.022300
  S     -0.793090   -0.036460    1.372810
  C     -3.865780    0.542680    3.933050
  C     -3.995420   -0.246370    5.232620
  C     -3.400910    0.699270    0.845160
  C     -3.553630    0.228630   -0.441250
  C     -4.593100    0.875730   -1.133350
  C     -5.241100    1.840740   -0.406800
  S     -4.562270    1.961120    1.190050
  C     -2.743520   -0.855350   -1.080980
  C     -1.680900   -0.270560   -2.012260
  C     -9.012440    4.307160   -3.111890
  C     -9.609020    3.592130   -4.130830
  C    -10.381710    4.402700   -4.979560
  C    -10.382900    5.732730   -4.645640
  S     -9.412020    6.006080   -3.230600
  C     -9.540710    2.104610   -4.298140
  C    -10.287380    1.385560   -3.174230
  C    -13.122800    8.733880   -7.973950
  C    -14.154900    8.120090   -8.644520
  C    -14.609850    8.888690   -9.742610
  C    -13.946820   10.060980   -9.921380
  S    -12.718270   10.264320   -8.719100
  C    -14.752650    6.805030   -8.243600
  C    -16.240710    6.695680   -8.563520
  C     -8.127990    3.850390   -2.078510
  C     -7.997820    4.298350   -0.779340
  C     -6.984490    3.626690   -0.075010
  C     -6.318540    2.678100   -0.807970
  S     -6.961810    2.591830   -2.419930
  C     -8.876990    5.319780   -0.124350
  C    -10.299300    4.790100    0.059810
  C    -12.354050    8.257890   -6.859310
  C    -11.791360    8.961010   -5.816180
  C    -11.056750    8.137650   -4.944050
  C    -11.037560    6.813620   -5.298500
  S    -11.960400    6.556900   -6.750370
  C    -11.922640   10.433080   -5.578930
  C    -10.661720   11.175770   -6.022610
  C    -14.163260   11.099030  -10.963430
  C      1.083860   -0.622480    3.361810
  H     -1.271440   -0.135840    4.928120
  H     -4.695930    0.280390    3.273160
  H     -3.952030    1.612530    4.149110
  H     -3.820760   -1.305210    5.054630
  H     -4.997640   -0.125600    5.637390
  H     -3.286910    0.103120    5.979110
  H     -4.868770    0.635840   -2.145740
  H     -3.414790   -1.494340   -1.660210
  H     -2.263460   -1.469180   -0.317820
  H     -2.147070    0.336780   -2.784850
  H     -1.117310   -1.069010   -2.488670
  H     -0.989770    0.354390   -1.451860
  H    -10.930880    4.023120   -5.823790
  H     -8.500940    1.773870   -4.314960
  H     -9.990800    1.843200   -5.257450
  H     -9.838140    1.613120   -2.210400
  H    -10.252140    0.309570   -3.326560
  H    -11.328900    1.699720   -3.150740
  H    -15.411430    8.578920  -10.388310
  H    -14.607950    6.663700   -7.170130
  H    -14.213100    5.998350   -8.750350
  H    -16.783200    7.541210   -8.146210
  H    -16.643160    5.781510   -8.133180
  H    -16.412870    6.666610   -9.636300
  H     -6.742130    3.830630    0.953610
  H     -8.902610    6.233770   -0.719730
  H     -8.453110    5.567030    0.850490
  H    -10.749120    4.560570   -0.903030
  H    -10.915630    5.532100    0.561230
  H    -10.290030    3.882760    0.660010
  H    -10.553940    8.505380   -4.066320
  H    -12.079110   10.599770   -4.510180
  H    -12.787050   10.826810   -6.115060
  H     -9.792310   10.798730   -5.488730
  H    -10.760790   12.239550   -5.820940
  H    -10.498200   11.039170   -7.088860
  H    -14.961760   10.790950  -11.634220
  H    -13.255150   11.255450  -11.545300
  H    -14.434040   12.051610  -10.508090
  H      1.195400   -0.702730    4.440530
  H      1.780500    0.129000    2.990710
  H      1.352070   -1.576630    2.908280

 Total Charge           Charge          ....    0
 Multiplicity           Mult            ....    1
 Number of Electrons    NEL             ....  366
 Basis Dimension        Dim             ....  850

ORBITAL ENERGIES
----------------

  NO   OCC          E(Eh)            E(eV)
   0   2.0000     -88.942587     -2420.2508
   1   2.0000     -88.942568     -2420.2503
   2   2.0000     -88.940718     -2420.2000
   3   2.0000     -88.940677     -2420.1989
   4   2.0000     -88.936600     -2420.0879
   5   2.0000     -88.936595     -2420.0878
   6   2.0000     -10.292668      -280.0777
   7   2.0000     -10.292589      -280.0756
   8   2.0000     -10.291443      -280.0444
   9   2.0000     -10.291328      -280.0413
  10   2.0000     -10.289737      -279.9980
  11   2.0000     -10.289506      -279.9917
  12   2.0000     -10.288277      -279.9582
  13   2.0000     -10.288171      -279.9554
  14   2.0000     -10.284850      -279.8650
  15   2.0000     -10.284809      -279.8639
  16   2.0000     -10.283711      -279.8340
  17   2.0000     -10.283570      -279.8302
  18   2.0000     -10.267500      -279.3929
  19   2.0000     -10.267415      -279.3906
  20   2.0000     -10.265546      -279.3397
  21   2.0000     -10.265441      -279.3369
  22   2.0000     -10.263196      -279.2758
  23   2.0000     -10.263106      -279.2733
  24   2.0000     -10.261501      -279.2296
  25   2.0000     -10.261496      -279.2295
  26   2.0000     -10.259448      -279.1738
  27   2.0000     -10.259399      -279.1725
  28   2.0000     -10.258873      -279.1581
  29   2.0000     -10.258863      -279.1578
  30   2.0000     -10.258071      -279.1363
  31   2.0000     -10.258046      -279.1356
  32   2.0000     -10.258019      -279.1349
  33   2.0000     -10.257969      -279.1335
  34   2.0000     -10.257404      -279.1182
  35   2.0000     -10.257357      -279.1169
  36   2.0000     -10.251946      -278.9696
  37   2.0000     -10.251926      -278.9691
  38   2.0000     -10.249400      -278.9004
  39   2.0000     -10.249289      -278.8973
  40   2.0000     -10.246305      -278.8161
  41   2.0000     -10.246239      -278.8143
  42   2.0000     -10.245239      -278.7871
  43   2.0000     -10.245221      -278.7866
  44   2.0000      -8.037655      -218.7157
  45   2.0000      -8.037643      -218.7154
  46   2.0000      -8.035815      -218.6657
  47   2.0000      -8.035771      -218.6644
  48   2.0000      -8.032155      -218.5661
  49   2.0000      -8.032118      -218.5651
  50   2.0000      -6.007037      -163.4598
  51   2.0000      -6.007028      -163.4596
  52   2.0000      -6.005237      -163.4108
  53   2.0000      -6.005195      -163.4097
  54   2.0000      -6.002955      -163.3487
  55   2.0000      -6.002946      -163.3485
  56   2.0000      -6.001554      -163.3106
  57   2.0000      -6.001516      -163.3096
  58   2.0000      -6.001090      -163.2980
  59   2.0000      -6.001039      -163.2966
  60   2.0000      -5.999604      -163.2575
  61   2.0000      -5.999593      -163.2572
  62   2.0000      -5.997742      -163.2069
  63   2.0000      -5.997703      -163.2058
  64   2.0000      -5.997215      -163.1925
  65   2.0000      -5.997177      -163.1915
  66   2.0000      -5.994291      -163.1130
  67   2.0000      -5.994276      -163.1126
  68   2.0000      -0.987782       -26.8789
  69   2.0000      -0.982190       -26.7267
  70   2.0000      -0.975253       -26.5380
  71   2.0000      -0.965964       -26.2852
  72   2.0000      -0.956060       -26.0157
  73   2.0000      -0.948723       -25.8161
  74   2.0000      -0.883389       -24.0382
  75   2.0000      -0.878293       -23.8996
  76   2.0000      -0.873121       -23.7588
  77   2.0000      -0.873100       -23.7583
  78   2.0000      -0.865098       -23.5405
  79   2.0000      -0.859639       -23.3920
  80   2.0000      -0.848406       -23.0863
  81   2.0000      -0.847603       -23.0645
  82   2.0000      -0.839129       -22.8339
  83   2.0000      -0.816211       -22.2102
  84   2.0000      -0.811747       -22.0888
  85   2.0000      -0.804520       -21.8921
  86   2.0000      -0.794411       -21.6170
  87   2.0000      -0.793344       -21.5880
  88   2.0000      -0.790792       -21.5185
  89   2.0000      -0.790103       -21.4998
  90   2.0000      -0.782910       -21.3041
  91   2.0000      -0.765736       -20.8367
  92   2.0000      -0.747314       -20.3355
  93   2.0000      -0.741521       -20.1778
  94   2.0000      -0.707598       -19.2547
  95   2.0000      -0.702587       -19.1184
  96   2.0000      -0.701522       -19.0894
  97   2.0000      -0.695154       -18.9161
  98   2.0000      -0.694149       -18.8888
  99   2.0000      -0.680423       -18.5153
 100   2.0000      -0.669075       -18.2064
 101   2.0000      -0.665545       -18.1104
 102   2.0000      -0.641250       -17.4493
 103   2.0000      -0.636381       -17.3168
 104   2.0000      -0.627328       -17.0705
 105   2.0000      -0.617738       -16.8095
 106   2.0000      -0.609209       -16.5774
 107   2.0000      -0.600944       -16.3525
 108   2.0000      -0.592459       -16.1216
 109   2.0000      -0.584946       -15.9172
 110   2.0000      -0.575024       -15.6472
 111   2.0000      -0.569543       -15.4981
 112   2.0000      -0.565488       -15.3877
 113   2.0000      -0.561391       -15.2762
 114   2.0000      -0.543105       -14.7786
 115   2.0000      -0.530257       -14.4290
 116   2.0000      -0.528312       -14.3761
 117   2.0000      -0.525874       -14.3097
 118   2.0000      -0.525526       -14.3003
 119   2.0000      -0.524076       -14.2608
 120   2.0000      -0.523003       -14.2316
 121   2.0000      -0.519070       -14.1246
 122   2.0000      -0.512392       -13.9429
 123   2.0000      -0.506071       -13.7709
 124   2.0000      -0.501767       -13.6538
 125   2.0000      -0.501165       -13.6374
 126   2.0000      -0.496298       -13.5050
 127   2.0000      -0.493436       -13.4271
 128   2.0000      -0.493191       -13.4204
 129   2.0000      -0.492131       -13.3916
 130   2.0000      -0.491893       -13.3851
 131   2.0000      -0.489031       -13.3072
 132   2.0000      -0.482821       -13.1382
 133   2.0000      -0.478337       -13.0162
 134   2.0000      -0.472862       -12.8672
 135   2.0000      -0.466852       -12.7037
 136   2.0000      -0.465927       -12.6785
 137   2.0000      -0.464532       -12.6406
 138   2.0000      -0.463710       -12.6182
 139   2.0000      -0.457248       -12.4424
 140   2.0000      -0.456061       -12.4101
 141   2.0000      -0.452464       -12.3122
 142   2.0000      -0.448796       -12.2124
 143   2.0000      -0.447263       -12.1707
 144   2.0000      -0.445788       -12.1305
 145   2.0000      -0.442911       -12.0522
 146   2.0000      -0.440128       -11.9765
 147   2.0000      -0.438384       -11.9290
 148   2.0000      -0.438058       -11.9202
 149   2.0000      -0.433783       -11.8038
 150   2.0000      -0.430892       -11.7252
 151   2.0000      -0.425820       -11.5872
 152   2.0000      -0.421174       -11.4607
 153   2.0000      -0.420860       -11.4522
 154   2.0000      -0.417992       -11.3741
 155   2.0000      -0.414950       -11.2914
 156   2.0000      -0.413597       -11.2546
 157   2.0000      -0.411061       -11.1855
 158   2.0000      -0.409078       -11.1316
 159   2.0000      -0.407625       -11.0920
 160   2.0000      -0.407282       -11.0827
 161   2.0000      -0.404415       -11.0047
 162   2.0000      -0.402994       -10.9660
 163   2.0000      -0.399720       -10.8769
 164   2.0000      -0.396683       -10.7943
 165   2.0000      -0.394144       -10.7252
 166   2.0000      -0.391133       -10.6433
 167   2.0000      -0.388339       -10.5673
 168   2.0000      -0.387541       -10.5455
 169   2.0000      -0.385039       -10.4774
 170   2.0000      -0.381901       -10.3921
 171   2.0000      -0.351685        -9.5698
 172   2.0000      -0.329718        -8.9721
 173   2.0000      -0.309171        -8.4130
 174   2.0000      -0.307470        -8.3667
 175   2.0000      -0.300933        -8.1888
 176   2.0000      -0.299315        -8.1448
 177   2.0000      -0.298881        -8.1330
 178   2.0000      -0.297536        -8.0964
 179   2.0000      -0.294450        -8.0124
 180   2.0000      -0.271818        -7.3966
 181   2.0000      -0.241535        -6.5725
 182   2.0000      -0.217822        -5.9272
 183   0.0000      -0.033577        -0.9137
 184   0.0000      -0.007900        -0.2150
 185   0.0000       0.020875         0.5680
 186   0.0000       0.036516         0.9936
 187   0.0000       0.059681         1.6240

MULLIKEN ATOMIC CHARGES
-----------------------
   0 C :   -0.144999
   1 C :   -0.032148
   2 C :   -0.023945
   3 C :   -0.194922
   4 S :    0.099984
   5 C :    0.067670
   6 C :    0.007258
   7 C :   -0.144798
   8 C :   -0.011985
   9 C :   -0.072971
  10 C :   -0.012896
  11 S :    0.107094
  12 C :    0.070099
  13 C :    0.019137
  14 C :   -0.148706
  15 C :   -0.009348
  16 C :   -0.079540
  17 C :   -0.010972
  18 S :    0.111008
  19 C :    0.085346
  20 C :    0.013514
  21 C :   -0.145211
  22 C :   -0.034348
  23 C :   -0.020032
  24 C :   -0.195393
  25 S :    0.099462
  26 C :    0.067975
  27 C :    0.007381
  28 C :   -0.148985
  29 C :   -0.007441
  30 C :   -0.080199
  31 C :   -0.011626
  32 S :    0.111573
  33 C :    0.083321
  34 C :    0.016192
  35 C :   -0.143179
  36 C :   -0.012028
  37 C :   -0.073308
  38 C :   -0.013115
  39 S :    0.108309
  40 C :    0.068913
  41 C :    0.017931
  42 C :    0.126943
  43 C :    0.127376
  44 H :   -0.038444
  45 H :    0.019107
  46 H :    0.020004
  47 H :    0.018334
  48 H :    0.010407
  49 H :    0.015390
  50 H :   -0.024008
  51 H :    0.002488
  52 H :    0.008855
  53 H :    0.008806
  54 H :    0.012400
  55 H :    0.015674
  56 H :   -0.024439
  57 H :    0.016264
  58 H :   -0.009504
  59 H :    0.027294
  60 H :    0.011010
  61 H :    0.011408
  62 H :   -0.039486
  63 H :    0.019736
  64 H :    0.019674
  65 H :    0.017538
  66 H :    0.010315
  67 H :    0.015596
  68 H :   -0.023967
  69 H :    0.016265
  70 H :   -0.009038
  71 H :    0.026607
  72 H :    0.010587
  73 H :    0.010867
  74 H :   -0.024256
  75 H :    0.002923
  76 H :    0.008940
  77 H :    0.008293
  78 H :    0.013184
  79 H :    0.016129
  80 H :    0.016199
  81 H :    0.030827
  82 H :    0.030209
  83 H :    0.016808
  84 H :    0.031001
  85 H :    0.029610
Sum of atomic charges:   -0.0000000

LOEWDIN ATOMIC CHARGES
----------------------
   0 C :   -0.200595
   1 C :   -0.056743
   2 C :   -0.079318
   3 C :   -0.174126
   4 S :    0.428239
   5 C :   -0.041091
   6 C :   -0.052214
   7 C :   -0.191003
   8 C :   -0.053682
   9 C :   -0.065951
  10 C :   -0.183670
  11 S :    0.438869
  12 C :   -0.036218
  13 C :   -0.052113
  14 C :   -0.195715
  15 C :   -0.052183
  16 C :   -0.068851
  17 C :   -0.180612
  18 S :    0.441633
  19 C :   -0.034706
  20 C :   -0.050684
  21 C :   -0.200693
  22 C :   -0.056730
  23 C :   -0.079142
  24 C :   -0.173827
  25 S :    0.427743
  26 C :   -0.040848
  27 C :   -0.052028
  28 C :   -0.195848
  29 C :   -0.052148
  30 C :   -0.068831
  31 C :   -0.180695
  32 S :    0.441436
  33 C :   -0.034825
  34 C :   -0.050476
  35 C :   -0.191059
  36 C :   -0.053587
  37 C :   -0.066110
  38 C :   -0.183689
  39 S :    0.438264
  40 C :   -0.036165
  41 C :   -0.052233
  42 C :   -0.059507
  43 C :   -0.059607
  44 H :    0.023103
  45 H :    0.023668
  46 H :    0.029161
  47 H :    0.025343
  48 H :    0.025468
  49 H :    0.020202
  50 H :    0.021889
  51 H :    0.028955
  52 H :    0.018283
  53 H :    0.021995
  54 H :    0.022762
  55 H :    0.016188
  56 H :    0.022689
  57 H :    0.017120
  58 H :    0.026721
  59 H :    0.023057
  60 H :    0.022840
  61 H :    0.023483
  62 H :    0.022903
  63 H :    0.023679
  64 H :    0.029309
  65 H :    0.025228
  66 H :    0.025379
  67 H :    0.020195
  68 H :    0.022637
  69 H :    0.017023
  70 H :    0.026796
  71 H :    0.022995
  72 H :    0.022761
  73 H :    0.023394
  74 H :    0.021781
  75 H :    0.029034
  76 H :    0.018449
  77 H :    0.021861
  78 H :    0.022924
  79 H :    0.016327
  80 H :    0.036288
  81 H :    0.035800
  82 H :    0.035754
  83 H :    0.036374
  84 H :    0.035881
  85 H :    0.035638

  Mayer bond orders larger than 0.100000
B(  0-C ,  1-C ) :   1.5865 B(  0-C ,  3-C ) :   0.1009 B(  0-C ,  4-S ) :   1.1099
B(  0-C ,  7-C ) :   1.0485 B(  1-C ,  2-C ) :   1.2192 B(  1-C ,  5-C ) :   1.0617
B(  2-C ,  3-C ) :   1.5940 B(  2-C , 44-H ) :   0.9964 B(  3-C ,  4-S ) :   1.1340
B(  3-C , 43-C ) :   1.0641 B(  5-C ,  6-C ) :   1.1099 B(  5-C , 45-H ) :   0.9216
B(  5-C , 46-H ) :   0.9173 B(  6-C , 47-H ) :   0.9741 B(  6-C , 48-H ) :   0.9646
B(  6-C , 49-H ) :   0.9626 B(  7-C ,  8-C ) :   1.5619 B(  7-C , 10-C ) :   0.1060
B(  7-C , 11-S ) :   1.1109 B(  8-C ,  9-C ) :   1.2352 B(  8-C , 12-C ) :   1.0736
B(  9-C , 10-C ) :   1.5150 B(  9-C , 50-H ) :   0.9930 B( 10-C , 11-S ) :   1.1158
B( 10-C , 31-C ) :   1.1257 B( 12-C , 13-C ) :   1.0966 B( 12-C , 51-H ) :   0.9231
B( 12-C , 52-H ) :   0.9170 B( 13-C , 53-H ) :   0.9705 B( 13-C , 54-H ) :   0.9675
B( 13-C , 55-H ) :   0.9660 B( 14-C , 15-C ) :   1.5397 B( 14-C , 17-C ) :   0.1069
B( 14-C , 18-S ) :   1.1134 B( 14-C , 28-C ) :   1.0606 B( 15-C , 16-C ) :   1.2517
B( 15-C , 19-C ) :   1.0730 B( 16-C , 17-C ) :   1.5075 B( 16-C , 56-H ) :   0.9945
B( 17-C , 18-S ) :   1.1182 B( 17-C , 38-C ) :   1.1272 B( 19-C , 20-C ) :   1.0987
B( 19-C , 57-H ) :   0.9141 B( 19-C , 58-H ) :   0.9188 B( 20-C , 59-H ) :   0.9717
B( 20-C , 60-H ) :   0.9660 B( 20-C , 61-H ) :   0.9682 B( 21-C , 22-C ) :   1.5886
B( 21-C , 24-C ) :   0.1008 B( 21-C , 25-S ) :   1.1091 B( 21-C , 35-C ) :   1.0454
B( 22-C , 23-C ) :   1.2184 B( 22-C , 26-C ) :   1.0618 B( 23-C , 24-C ) :   1.5937
B( 23-C , 62-H ) :   0.9966 B( 24-C , 25-S ) :   1.1346 B( 24-C , 42-C ) :   1.0639
B( 26-C , 27-C ) :   1.1109 B( 26-C , 63-H ) :   0.9215 B( 26-C , 64-H ) :   0.9174
B( 27-C , 65-H ) :   0.9742 B( 27-C , 66-H ) :   0.9646 B( 27-C , 67-H ) :   0.9628
B( 28-C , 29-C ) :   1.5362 B( 28-C , 31-C ) :   0.1071 B( 28-C , 32-S ) :   1.1146
B( 29-C , 30-C ) :   1.2538 B( 29-C , 33-C ) :   1.0741 B( 30-C , 31-C ) :   1.5085
B( 30-C , 68-H ) :   0.9931 B( 31-C , 32-S ) :   1.1181 B( 33-C , 34-C ) :   1.0993
B( 33-C , 69-H ) :   0.9141 B( 33-C , 70-H ) :   0.9184 B( 34-C , 71-H ) :   0.9718
B( 34-C , 72-H ) :   0.9657 B( 34-C , 73-H ) :   0.9679 B( 35-C , 36-C ) :   1.5641
B( 35-C , 38-C ) :   0.1060 B( 35-C , 39-S ) :   1.1103 B( 36-C , 37-C ) :   1.2331
B( 36-C , 40-C ) :   1.0735 B( 37-C , 38-C ) :   1.5138 B( 37-C , 74-H ) :   0.9938
B( 38-C , 39-S ) :   1.1157 B( 40-C , 41-C ) :   1.0985 B( 40-C , 75-H ) :   0.9232
B( 40-C , 76-H ) :   0.9170 B( 41-C , 77-H ) :   0.9704 B( 41-C , 78-H ) :   0.9673
B( 41-C , 79-H ) :   0.9658 B( 42-C , 80-H ) :   0.9561 B( 42-C , 81-H ) :   0.9515
B( 42-C , 82-H ) :   0.9506 B( 43-C , 83-H ) :   0.9559 B( 43-C , 84-H ) :   0.9513
B( 43-C , 85-H ) :   0.9504

-----------------------------------------------------------------------------
         ABSORPTION SPECTRUM VIA TRANSITION ELECTRIC DIPOLE MOMENTS
-----------------------------------------------------------------------------
State   Energy  Wavelength   fosc         T2         TX        TY        TZ
        (cm-1)    (nm)                  (au**2)     (au)      (au)      (au)
-----------------------------------------------------------------------------
   0   24272.7    412.0   1.968219352  26.69509  -3.29368   2.53394  -3.07016
   1   30601.6    326.8   0.033649044   0.36200   0.46110   0.27147  -0.27511
   2   31321.8    319.3   0.005647508   0.05936  -0.19337  -0.10529   0.10431
   3   35704.3    280.1   0.180066912   1.66031   0.78793  -0.42254   0.92787
   4   36229.4    276.0   0.257298993   2.33805  -0.95498   0.62724  -1.01619
   5   40116.9    249.3   0.000256911   0.00211   0.01351   0.03086  -0.03120
   6   40224.4    248.6   0.074664655   0.61108   0.49958  -0.44809   0.40090

FINAL SINGLE POINT ENERGY     -3859.852677744278

DIPOLE MOMENT
-------------
                                X             Y             Z
Electronic contribution:     11.66136       6.55830      -7.06973
Nuclear contribution   :    -11.88516      -6.68495       7.20516
                        -----------------------------------------
Total Dipole Moment    :     -0.22379      -0.12665       0.13544
                        -----------------------------------------
Magnitude (a.u.)       :      0.29063
Magnitude (Debye)      :      0.73873

Rotational constants in cm-1:     0.006140     0.000489     0.000486
Rotational constants in MHz :   184.061643    14.657741    14.559804

                             ****ORCA TERMINATED NORMALLY****
TOTAL RUN TIME: 0 days 0 hours 6 minutes 12 seconds 973 msec
