                         Program Version 4.2.0 -  RELEASE  -
|  1> # ORCA input file
|  2> # SCF done       -163.269303947044          0.000497302139
|  3> ! CAM-B3LYP def2-SVP def2/J RIJCOSX Grid4 TightSCF
|  4> %maxcore 5000
|  5> %tddft
|  6>     Mode sTDDFT
|  7>     Ethresh 5.0
|  8>     maxcore 5000
|  9> end
| 10>
| 11> %pal
| 12>   nprocs 6
| 13>   end
| 14> * xyz 0 1
| 15>    C        0.64551         1.52201        -0.07323
| 16>    C        1.81629         0.82359         0.04615
| 17>    C        1.85239        -0.57898         0.12880
| 18>    C        0.69574        -1.34079         0.07843
| 19>    C       -0.52263        -0.61919        -0.08516
| 20>    C       -0.55662         0.79654        -0.14027
| 21>    N       -1.66359        -1.31389        -0.14225
| 22>    C       -2.81812        -0.69448        -0.23409
| 23>    C       -2.84404         0.73753        -0.33883
| 24>    N       -1.73346         1.43521        -0.27805
| 25>    F        2.98342         1.48667         0.10398
| 26>    F        3.05905        -1.15398         0.27745
| 27>    C        1.66847        -3.66960         0.41481
| 28>    C        1.23640        -4.98324         0.59873
| 29>    C       -0.13568        -5.10397         0.58301
| 30>    S       -0.90119        -3.55764         0.31562
| 31>    C        0.63804        -2.76941         0.24044
| 32>    C       -4.00346        -1.54749        -0.17862
| 33>    C       -4.00163        -2.74199        -0.89755
| 34>    C       -5.05702        -3.63544        -0.83302
| 35>    C       -6.12357        -3.35842         0.05035
| 36>    C       -6.11639        -2.15482         0.75337
| 37>    C       -5.08923        -1.24470         0.63530
| 38>    C       -4.07955         1.49425        -0.54591
| 39>    C       -4.24101         2.72599         0.07675
| 40>    C       -5.39931         3.45248        -0.11485
| 41>    C       -6.42041         2.99743        -0.94353
| 42>    C       -6.25724         1.75580        -1.59520
| 43>    C       -5.09083         1.03259        -1.38076
| 44>    O       -7.56993         3.70079        -1.16798
| 45>    C       -7.75606         4.95174        -0.53575
| 46>    C       -9.10792         5.48860        -0.98043
| 47>    O       -7.11890         1.15974        -2.45904
| 48>    C       -8.44089         1.63308        -2.65663
| 49>    C       -9.14401         0.62076        -3.54858
| 50>    O       -7.20580        -4.14242         0.26928
| 51>    C       -7.15092        -5.54321         0.03799
| 52>    C       -8.29175        -6.17550         0.82122
| 53>    O       -5.15048        -4.76567        -1.60092
| 54>    C       -4.23513        -4.98391        -2.65513
| 55>    C       -2.95065        -5.67291        -2.20451
| 56>    C       -0.92939        -6.30013         0.72576
| 57>    C       -0.43160        -7.58386         0.45834
| 58>    C       -1.20948        -8.72258         0.56682
| 59>    C       -2.55835        -8.68510         0.94590
| 60>    C       -3.05187        -7.40400         1.22760
| 61>    C       -2.27556        -6.26511         1.12086
| 62>    C       -3.37929        -9.87126         1.04081
| 63>    S       -2.67049       -11.44695         1.25780
| 64>    C       -4.21523       -12.17814         1.29044
| 65>    C       -5.22100       -11.27560         1.13048
| 66>    C       -4.74984        -9.96009         0.99157
| 67>    F       -2.85713        -5.09574         1.43012
| 68>    F       -0.63712        -9.89983         0.26614
| 69>    F        0.83722        -7.73999         0.05075
| 70>    F       -4.32275        -7.24638         1.63550
| 71>    H        0.63647         2.59767        -0.11876
| 72>    H        2.70696        -3.39658         0.41150
| 73>    H        1.91500        -5.79968         0.76242
| 74>    H       -3.15209        -2.93840        -1.52976
| 75>    H       -6.95322        -1.96071         1.40534
| 76>    H       -5.10634        -0.32998         1.20647
| 77>    H       -3.46083         3.10346         0.71760
| 78>    H       -5.50205         4.39972         0.38932
| 79>    H       -4.99171         0.09960        -1.91153
| 80>    H       -6.95795         5.64714        -0.82930
| 81>    H       -7.73716         4.83069         0.55612
| 82>    H       -9.12413         5.60839        -2.06026
| 83>    H       -9.29373         6.45100        -0.51259
| 84>    H       -9.89557         4.79581        -0.69704
| 85>    H       -8.42683         2.61763        -3.13678
| 86>    H       -8.96048         1.71805        -1.69584
| 87>    H       -8.62106         0.53625        -4.49734
| 88>    H      -10.16690         0.93749        -3.73137
| 89>    H       -9.15058        -0.35464        -3.06963
| 90>    H       -6.19072        -5.93982         0.38059
| 91>    H       -7.26021        -5.75469        -1.03157
| 92>    H       -8.16462        -5.98636         1.88360
| 93>    H       -8.30543        -7.24817         0.65005
| 94>    H       -9.24052        -5.75152         0.50368
| 95>    H       -4.01244        -4.04263        -3.17124
| 96>    H       -4.77476        -5.63749        -3.34831
| 97>    H       -2.41275        -5.05960        -1.48706
| 98>    H       -2.31151        -5.85084        -3.06495
| 99>    H       -3.18558        -6.62749        -1.73887
|100>    H       -4.29204       -13.23924         1.42227
|101>    H       -6.26307       -11.53887         1.11311
|102>    H       -5.39958        -9.11822         0.84397
|103> *
|104>
|105>                          ****END OF INPUT****

CARTESIAN COORDINATES (ANGSTROEM)
---------------------------------
  C      0.645510    1.522010   -0.073230
  C      1.816290    0.823590    0.046150
  C      1.852390   -0.578980    0.128800
  C      0.695740   -1.340790    0.078430
  C     -0.522630   -0.619190   -0.085160
  C     -0.556620    0.796540   -0.140270
  N     -1.663590   -1.313890   -0.142250
  C     -2.818120   -0.694480   -0.234090
  C     -2.844040    0.737530   -0.338830
  N     -1.733460    1.435210   -0.278050
  F      2.983420    1.486670    0.103980
  F      3.059050   -1.153980    0.277450
  C      1.668470   -3.669600    0.414810
  C      1.236400   -4.983240    0.598730
  C     -0.135680   -5.103970    0.583010
  S     -0.901190   -3.557640    0.315620
  C      0.638040   -2.769410    0.240440
  C     -4.003460   -1.547490   -0.178620
  C     -4.001630   -2.741990   -0.897550
  C     -5.057020   -3.635440   -0.833020
  C     -6.123570   -3.358420    0.050350
  C     -6.116390   -2.154820    0.753370
  C     -5.089230   -1.244700    0.635300
  C     -4.079550    1.494250   -0.545910
  C     -4.241010    2.725990    0.076750
  C     -5.399310    3.452480   -0.114850
  C     -6.420410    2.997430   -0.943530
  C     -6.257240    1.755800   -1.595200
  C     -5.090830    1.032590   -1.380760
  O     -7.569930    3.700790   -1.167980
  C     -7.756060    4.951740   -0.535750
  C     -9.107920    5.488600   -0.980430
  O     -7.118900    1.159740   -2.459040
  C     -8.440890    1.633080   -2.656630
  C     -9.144010    0.620760   -3.548580
  O     -7.205800   -4.142420    0.269280
  C     -7.150920   -5.543210    0.037990
  C     -8.291750   -6.175500    0.821220
  O     -5.150480   -4.765670   -1.600920
  C     -4.235130   -4.983910   -2.655130
  C     -2.950650   -5.672910   -2.204510
  C     -0.929390   -6.300130    0.725760
  C     -0.431600   -7.583860    0.458340
  C     -1.209480   -8.722580    0.566820
  C     -2.558350   -8.685100    0.945900
  C     -3.051870   -7.404000    1.227600
  C     -2.275560   -6.265110    1.120860
  C     -3.379290   -9.871260    1.040810
  S     -2.670490  -11.446950    1.257800
  C     -4.215230  -12.178140    1.290440
  C     -5.221000  -11.275600    1.130480
  C     -4.749840   -9.960090    0.991570
  F     -2.857130   -5.095740    1.430120
  F     -0.637120   -9.899830    0.266140
  F      0.837220   -7.739990    0.050750
  F     -4.322750   -7.246380    1.635500
  H      0.636470    2.597670   -0.118760
  H      2.706960   -3.396580    0.411500
  H      1.915000   -5.799680    0.762420
  H     -3.152090   -2.938400   -1.529760
  H     -6.953220   -1.960710    1.405340
  H     -5.106340   -0.329980    1.206470
  H     -3.460830    3.103460    0.717600
  H     -5.502050    4.399720    0.389320
  H     -4.991710    0.099600   -1.911530
  H     -6.957950    5.647140   -0.829300
  H     -7.737160    4.830690    0.556120
  H     -9.124130    5.608390   -2.060260
  H     -9.293730    6.451000   -0.512590
  H     -9.895570    4.795810   -0.697040
  H     -8.426830    2.617630   -3.136780
  H     -8.960480    1.718050   -1.695840
  H     -8.621060    0.536250   -4.497340
  H    -10.166900    0.937490   -3.731370
  H     -9.150580   -0.354640   -3.069630
  H     -6.190720   -5.939820    0.380590
  H     -7.260210   -5.754690   -1.031570
  H     -8.164620   -5.986360    1.883600
  H     -8.305430   -7.248170    0.650050
  H     -9.240520   -5.751520    0.503680
  H     -4.012440   -4.042630   -3.171240
  H     -4.774760   -5.637490   -3.348310
  H     -2.412750   -5.059600   -1.487060
  H     -2.311510   -5.850840   -3.064950
  H     -3.185580   -6.627490   -1.738870
  H     -4.292040  -13.239240    1.422270
  H     -6.263070  -11.538870    1.113110
  H     -5.399580   -9.118220    0.843970

 Total Charge           Charge          ....    0
 Multiplicity           Mult            ....    1
 Number of Electrons    NEL             ....  416
 Basis Dimension        Dim             ....  952

ORBITAL ENERGIES
----------------

  NO   OCC          E(Eh)            E(eV)
   0   2.0000     -88.952438     -2420.5189
   1   2.0000     -88.943563     -2420.2774
   2   2.0000     -24.797559      -674.7759
   3   2.0000     -24.795624      -674.7232
   4   2.0000     -24.792964      -674.6508
   5   2.0000     -24.792617      -674.6414
   6   2.0000     -24.792292      -674.6326
   7   2.0000     -24.784330      -674.4159
   8   2.0000     -19.241867      -523.5978
   9   2.0000     -19.234565      -523.3991
  10   2.0000     -19.226746      -523.1863
  11   2.0000     -19.225426      -523.1504
  12   2.0000     -14.420112      -392.3912
  13   2.0000     -14.415323      -392.2609
  14   2.0000     -10.371767      -282.2301
  15   2.0000     -10.371614      -282.2260
  16   2.0000     -10.371135      -282.2129
  17   2.0000     -10.370029      -282.1828
  18   2.0000     -10.369586      -282.1708
  19   2.0000     -10.368133      -282.1312
  20   2.0000     -10.329121      -281.0697
  21   2.0000     -10.325773      -280.9786
  22   2.0000     -10.324581      -280.9461
  23   2.0000     -10.323216      -280.9090
  24   2.0000     -10.322417      -280.8872
  25   2.0000     -10.321188      -280.8538
  26   2.0000     -10.320878      -280.8454
  27   2.0000     -10.318313      -280.7756
  28   2.0000     -10.316313      -280.7212
  29   2.0000     -10.315966      -280.7117
  30   2.0000     -10.313940      -280.6566
  31   2.0000     -10.310552      -280.5644
  32   2.0000     -10.304865      -280.4096
  33   2.0000     -10.304838      -280.4089
  34   2.0000     -10.302274      -280.3391
  35   2.0000     -10.301479      -280.3175
  36   2.0000     -10.295316      -280.1498
  37   2.0000     -10.289172      -279.9826
  38   2.0000     -10.288546      -279.9656
  39   2.0000     -10.281859      -279.7836
  40   2.0000     -10.271293      -279.4961
  41   2.0000     -10.268035      -279.4074
  42   2.0000     -10.266812      -279.3742
  43   2.0000     -10.266393      -279.3628
  44   2.0000     -10.264191      -279.3028
  45   2.0000     -10.264070      -279.2995
  46   2.0000     -10.262647      -279.2608
  47   2.0000     -10.262618      -279.2600
  48   2.0000     -10.262083      -279.2455
  49   2.0000     -10.259899      -279.1860
  50   2.0000     -10.259661      -279.1796
  51   2.0000     -10.258600      -279.1507
  52   2.0000     -10.255222      -279.0588
  53   2.0000     -10.254610      -279.0421
  54   2.0000     -10.247632      -278.8522
  55   2.0000     -10.246801      -278.8296
  56   2.0000      -8.048254      -219.0041
  57   2.0000      -8.035622      -218.6604
  58   2.0000      -6.017578      -163.7466
  59   2.0000      -6.013068      -163.6239
  60   2.0000      -6.010571      -163.5560
  61   2.0000      -6.005400      -163.4152
  62   2.0000      -6.000297      -163.2764
  63   2.0000      -5.997896      -163.2110
  64   2.0000      -1.318817       -35.8868
  65   2.0000      -1.317843       -35.8603
  66   2.0000      -1.311291       -35.6820
  67   2.0000      -1.300610       -35.3914
  68   2.0000      -1.300137       -35.3785
  69   2.0000      -1.293391       -35.1950
  70   2.0000      -1.150495       -31.3066
  71   2.0000      -1.144639       -31.1472
  72   2.0000      -1.125890       -30.6370
  73   2.0000      -1.122717       -30.5507
  74   2.0000      -1.081412       -29.4267
  75   2.0000      -1.007250       -27.4087
  76   2.0000      -0.991145       -26.9704
  77   2.0000      -0.978396       -26.6235
  78   2.0000      -0.969905       -26.3925
  79   2.0000      -0.957321       -26.0500
  80   2.0000      -0.940442       -25.5907
  81   2.0000      -0.936945       -25.4956
  82   2.0000      -0.896983       -24.4082
  83   2.0000      -0.882277       -24.0080
  84   2.0000      -0.873217       -23.7615
  85   2.0000      -0.859943       -23.4002
  86   2.0000      -0.854121       -23.2418
  87   2.0000      -0.851077       -23.1590
  88   2.0000      -0.845457       -23.0061
  89   2.0000      -0.844749       -22.9868
  90   2.0000      -0.828845       -22.5540
  91   2.0000      -0.825046       -22.4506
  92   2.0000      -0.820029       -22.3141
  93   2.0000      -0.818427       -22.2705
  94   2.0000      -0.811931       -22.0938
  95   2.0000      -0.804914       -21.9028
  96   2.0000      -0.796979       -21.6869
  97   2.0000      -0.785466       -21.3736
  98   2.0000      -0.757159       -20.6033
  99   2.0000      -0.749115       -20.3845
 100   2.0000      -0.741004       -20.1638
 101   2.0000      -0.731324       -19.9003
 102   2.0000      -0.726733       -19.7754
 103   2.0000      -0.724330       -19.7100
 104   2.0000      -0.712192       -19.3797
 105   2.0000      -0.702259       -19.1094
 106   2.0000      -0.696776       -18.9603
 107   2.0000      -0.681763       -18.5517
 108   2.0000      -0.676171       -18.3995
 109   2.0000      -0.674701       -18.3595
 110   2.0000      -0.669740       -18.2245
 111   2.0000      -0.668241       -18.1838
 112   2.0000      -0.662949       -18.0398
 113   2.0000      -0.654551       -17.8112
 114   2.0000      -0.650933       -17.7128
 115   2.0000      -0.640410       -17.4264
 116   2.0000      -0.636560       -17.3217
 117   2.0000      -0.631864       -17.1939
 118   2.0000      -0.625886       -17.0312
 119   2.0000      -0.620655       -16.8889
 120   2.0000      -0.618730       -16.8365
 121   2.0000      -0.611210       -16.6319
 122   2.0000      -0.610015       -16.5993
 123   2.0000      -0.604092       -16.4382
 124   2.0000      -0.598404       -16.2834
 125   2.0000      -0.593984       -16.1631
 126   2.0000      -0.591572       -16.0975
 127   2.0000      -0.587942       -15.9987
 128   2.0000      -0.582743       -15.8572
 129   2.0000      -0.577490       -15.7143
 130   2.0000      -0.576334       -15.6828
 131   2.0000      -0.572258       -15.5719
 132   2.0000      -0.571773       -15.5587
 133   2.0000      -0.569985       -15.5101
 134   2.0000      -0.568079       -15.4582
 135   2.0000      -0.561107       -15.2685
 136   2.0000      -0.558652       -15.2017
 137   2.0000      -0.551059       -14.9951
 138   2.0000      -0.550404       -14.9772
 139   2.0000      -0.549007       -14.9392
 140   2.0000      -0.546033       -14.8583
 141   2.0000      -0.539282       -14.6746
 142   2.0000      -0.536202       -14.5908
 143   2.0000      -0.534260       -14.5380
 144   2.0000      -0.525659       -14.3039
 145   2.0000      -0.523215       -14.2374
 146   2.0000      -0.520181       -14.1548
 147   2.0000      -0.519358       -14.1325
 148   2.0000      -0.517577       -14.0840
 149   2.0000      -0.512538       -13.9469
 150   2.0000      -0.507495       -13.8096
 151   2.0000      -0.499326       -13.5873
 152   2.0000      -0.498625       -13.5683
 153   2.0000      -0.492746       -13.4083
 154   2.0000      -0.489642       -13.3238
 155   2.0000      -0.488148       -13.2832
 156   2.0000      -0.485620       -13.2144
 157   2.0000      -0.482519       -13.1300
 158   2.0000      -0.478577       -13.0228
 159   2.0000      -0.477424       -12.9914
 160   2.0000      -0.474207       -12.9038
 161   2.0000      -0.472999       -12.8710
 162   2.0000      -0.471326       -12.8254
 163   2.0000      -0.469723       -12.7818
 164   2.0000      -0.469152       -12.7663
 165   2.0000      -0.466784       -12.7018
 166   2.0000      -0.461456       -12.5569
 167   2.0000      -0.460294       -12.5252
 168   2.0000      -0.459242       -12.4966
 169   2.0000      -0.457376       -12.4458
 170   2.0000      -0.455238       -12.3877
 171   2.0000      -0.454445       -12.3661
 172   2.0000      -0.451247       -12.2791
 173   2.0000      -0.448360       -12.2005
 174   2.0000      -0.446427       -12.1479
 175   2.0000      -0.443316       -12.0633
 176   2.0000      -0.441777       -12.0214
 177   2.0000      -0.435110       -11.8399
 178   2.0000      -0.433275       -11.7900
 179   2.0000      -0.430222       -11.7069
 180   2.0000      -0.428614       -11.6632
 181   2.0000      -0.424255       -11.5446
 182   2.0000      -0.418014       -11.3747
 183   2.0000      -0.416538       -11.3346
 184   2.0000      -0.416106       -11.3228
 185   2.0000      -0.413925       -11.2635
 186   2.0000      -0.409755       -11.1500
 187   2.0000      -0.402980       -10.9656
 188   2.0000      -0.397768       -10.8238
 189   2.0000      -0.390732       -10.6324
 190   2.0000      -0.383910       -10.4467
 191   2.0000      -0.380834       -10.3630
 192   2.0000      -0.374049       -10.1784
 193   2.0000      -0.369936       -10.0665
 194   2.0000      -0.366052        -9.9608
 195   2.0000      -0.356184        -9.6923
 196   2.0000      -0.335766        -9.1367
 197   2.0000      -0.322614        -8.7788
 198   2.0000      -0.317935        -8.6514
 199   2.0000      -0.312508        -8.5038
 200   2.0000      -0.309008        -8.4085
 201   2.0000      -0.307246        -8.3606
 202   2.0000      -0.297402        -8.0927
 203   2.0000      -0.296659        -8.0725
 204   2.0000      -0.290847        -7.9143
 205   2.0000      -0.263044        -7.1578
 206   2.0000      -0.254817        -6.9339
 207   2.0000      -0.249630        -6.7928
 208   0.0000      -0.057635        -1.5683
 209   0.0000      -0.026477        -0.7205
 210   0.0000      -0.008054        -0.2192
 211   0.0000       0.014506         0.3947
 212   0.0000       0.031264         0.8507

MULLIKEN ATOMIC CHARGES
-----------------------
   0 C :   -0.123738
   1 C :    0.275851
   2 C :    0.112848
   3 C :    0.136534
   4 C :   -0.022845
   5 C :    0.009859
   6 N :   -0.075090
   7 C :    0.024424
   8 C :   -0.016224
   9 N :    0.007986
  10 F :   -0.181707
  11 F :   -0.173709
  12 C :   -0.006158
  13 C :    0.011303
  14 C :   -0.065108
  15 S :    0.163025
  16 C :   -0.107741
  17 C :   -0.021717
  18 C :   -0.087596
  19 C :    0.173939
  20 C :    0.179888
  21 C :   -0.054807
  22 C :    0.065603
  23 C :    0.025808
  24 C :    0.014681
  25 C :   -0.087780
  26 C :    0.167929
  27 C :    0.163917
  28 C :   -0.033753
  29 O :   -0.329830
  30 C :    0.134527
  31 C :    0.022879
  32 O :   -0.313595
  33 C :    0.174761
  34 C :    0.016324
  35 O :   -0.310942
  36 C :    0.173225
  37 C :    0.011195
  38 O :   -0.333123
  39 C :    0.163528
  40 C :   -0.007525
  41 C :    0.007662
  42 C :    0.163051
  43 C :    0.147371
  44 C :    0.026262
  45 C :    0.167373
  46 C :    0.140108
  47 C :   -0.138915
  48 S :    0.146201
  49 C :   -0.071090
  50 C :    0.043419
  51 C :    0.011555
  52 F :   -0.163272
  53 F :   -0.173595
  54 F :   -0.170806
  55 F :   -0.171510
  56 H :   -0.016524
  57 H :   -0.011023
  58 H :   -0.014901
  59 H :   -0.027733
  60 H :   -0.023252
  61 H :   -0.017987
  62 H :   -0.028183
  63 H :   -0.027102
  64 H :   -0.015043
  65 H :    0.018318
  66 H :    0.017801
  67 H :    0.027404
  68 H :    0.017117
  69 H :    0.025245
  70 H :    0.010652
  71 H :    0.006969
  72 H :    0.018396
  73 H :    0.008596
  74 H :    0.022548
  75 H :    0.003036
  76 H :    0.013940
  77 H :    0.020223
  78 H :    0.008427
  79 H :    0.018910
  80 H :    0.012042
  81 H :    0.017253
  82 H :    0.022226
  83 H :    0.020278
  84 H :    0.019445
  85 H :    0.029815
  86 H :   -0.010096
  87 H :   -0.007658
Sum of atomic charges:   -0.0000000

LOEWDIN ATOMIC CHARGES
----------------------
   0 C :   -0.045173
   1 C :    0.067194
   2 C :    0.065414
   3 C :   -0.054694
   4 C :   -0.015953
   5 C :   -0.013195
   6 N :   -0.057606
   7 C :    0.026595
   8 C :    0.017079
   9 N :   -0.039871
  10 F :   -0.056231
  11 F :   -0.046422
  12 C :   -0.051898
  13 C :   -0.050605
  14 C :   -0.191300
  15 S :    0.510376
  16 C :   -0.174531
  17 C :   -0.056670
  18 C :   -0.047717
  19 C :    0.025675
  20 C :    0.045864
  21 C :   -0.038958
  22 C :   -0.015098
  23 C :   -0.054581
  24 C :   -0.014860
  25 C :   -0.067919
  26 C :    0.028068
  27 C :    0.037146
  28 C :   -0.021343
  29 O :   -0.104646
  30 C :    0.081842
  31 C :   -0.059982
  32 O :   -0.107515
  33 C :    0.082757
  34 C :   -0.064376
  35 O :   -0.104676
  36 C :    0.082455
  37 C :   -0.065208
  38 O :   -0.105107
  39 C :    0.080160
  40 C :   -0.074221
  41 C :   -0.076179
  42 C :    0.061729
  43 C :    0.051000
  44 C :   -0.078939
  45 C :    0.058960
  46 C :    0.053126
  47 C :   -0.183571
  48 S :    0.454883
  49 C :   -0.183400
  50 C :   -0.067835
  51 C :   -0.049600
  52 F :   -0.043004
  53 F :   -0.051656
  54 F :   -0.043849
  55 F :   -0.041786
  56 H :    0.046223
  57 H :    0.027477
  58 H :    0.025734
  59 H :    0.025952
  60 H :    0.032898
  61 H :    0.030400
  62 H :    0.028107
  63 H :    0.029323
  64 H :    0.035472
  65 H :    0.013731
  66 H :    0.013216
  67 H :    0.029553
  68 H :    0.031089
  69 H :    0.029224
  70 H :    0.009953
  71 H :    0.010240
  72 H :    0.026321
  73 H :    0.026928
  74 H :    0.027737
  75 H :    0.007698
  76 H :    0.011421
  77 H :    0.026727
  78 H :    0.026039
  79 H :    0.026291
  80 H :    0.012923
  81 H :    0.023471
  82 H :    0.013930
  83 H :    0.033389
  84 H :    0.025946
  85 H :    0.024428
  86 H :    0.030250
  87 H :    0.027762

  Mayer bond orders larger than 0.100000
B(  0-C ,  1-C ) :   1.3889 B(  0-C ,  3-C ) :   0.1182 B(  0-C ,  5-C ) :   1.1889
B(  0-C , 56-H ) :   1.0409 B(  1-C ,  2-C ) :   1.1924 B(  1-C , 10-F ) :   1.1061
B(  2-C ,  3-C ) :   1.3540 B(  2-C , 11-F ) :   1.1444 B(  3-C ,  4-C ) :   1.1689
B(  3-C , 16-C ) :   1.1036 B(  4-C ,  5-C ) :   1.2502 B(  4-C ,  6-N ) :   1.4052
B(  5-C ,  9-N ) :   1.4091 B(  6-N ,  7-C ) :   1.6283 B(  7-C ,  8-C ) :   1.1708
B(  7-C , 17-C ) :   0.9792 B(  8-C ,  9-N ) :   1.6914 B(  8-C , 23-C ) :   0.9826
B( 12-C , 13-C ) :   1.2593 B( 12-C , 16-C ) :   1.4867 B( 12-C , 57-H ) :   0.9961
B( 13-C , 14-C ) :   1.5030 B( 13-C , 58-H ) :   0.9985 B( 14-C , 15-S ) :   1.0810
B( 14-C , 41-C ) :   1.0827 B( 15-S , 16-C ) :   1.1362 B( 17-C , 18-C ) :   1.3321
B( 17-C , 22-C ) :   1.3737 B( 18-C , 19-C ) :   1.2962 B( 18-C , 59-H ) :   0.9944
B( 19-C , 20-C ) :   1.3071 B( 19-C , 38-O ) :   1.1069 B( 20-C , 21-C ) :   1.3985
B( 20-C , 35-O ) :   1.1723 B( 21-C , 22-C ) :   1.3621 B( 21-C , 60-H ) :   0.9966
B( 22-C , 61-H ) :   0.9902 B( 23-C , 24-C ) :   1.3842 B( 23-C , 28-C ) :   1.3375
B( 24-C , 25-C ) :   1.3163 B( 24-C , 62-H ) :   1.0003 B( 25-C , 26-C ) :   1.3129
B( 25-C , 63-H ) :   0.9980 B( 26-C , 27-C ) :   1.3056 B( 26-C , 29-O ) :   1.1227
B( 27-C , 28-C ) :   1.4078 B( 27-C , 32-O ) :   1.1676 B( 28-C , 64-H ) :   0.9910
B( 29-O , 30-C ) :   0.9466 B( 30-C , 31-C ) :   1.0975 B( 30-C , 65-H ) :   0.9502
B( 30-C , 66-H ) :   0.9506 B( 31-C , 67-H ) :   0.9690 B( 31-C , 68-H ) :   0.9606
B( 31-C , 69-H ) :   0.9693 B( 32-O , 33-C ) :   0.9278 B( 33-C , 34-C ) :   1.0903
B( 33-C , 70-H ) :   0.9581 B( 33-C , 71-H ) :   0.9578 B( 34-C , 72-H ) :   0.9685
B( 34-C , 73-H ) :   0.9624 B( 34-C , 74-H ) :   0.9681 B( 35-O , 36-C ) :   0.9206
B( 36-C , 37-C ) :   1.0929 B( 36-C , 75-H ) :   0.9518 B( 36-C , 76-H ) :   0.9561
B( 37-C , 77-H ) :   0.9680 B( 37-C , 78-H ) :   0.9629 B( 37-C , 79-H ) :   0.9682
B( 38-O , 39-C ) :   0.9521 B( 39-C , 40-C ) :   1.1191 B( 39-C , 80-H ) :   0.9442
B( 39-C , 81-H ) :   0.9560 B( 40-C , 82-H ) :   0.9588 B( 40-C , 83-H ) :   0.9547
B( 40-C , 84-H ) :   0.9576 B( 41-C , 42-C ) :   1.2944 B( 41-C , 44-C ) :   0.1214
B( 41-C , 46-C ) :   1.2752 B( 42-C , 43-C ) :   1.3171 B( 42-C , 54-F ) :   1.1483
B( 43-C , 44-C ) :   1.2874 B( 43-C , 53-F ) :   1.1471 B( 44-C , 45-C ) :   1.3054
B( 44-C , 47-C ) :   1.0679 B( 45-C , 46-C ) :   1.3147 B( 45-C , 55-F ) :   1.1135
B( 46-C , 52-F ) :   1.1541 B( 47-C , 48-S ) :   1.1441 B( 47-C , 51-C ) :   1.5420
B( 48-S , 49-C ) :   1.1759 B( 49-C , 50-C ) :   1.5555 B( 49-C , 85-H ) :   0.9738
B( 50-C , 51-C ) :   1.2647 B( 50-C , 86-H ) :   0.9953 B( 51-C , 87-H ) :   0.9973

-----------------------------------------------------------------------------
         ABSORPTION SPECTRUM VIA TRANSITION ELECTRIC DIPOLE MOMENTS
-----------------------------------------------------------------------------
State   Energy  Wavelength   fosc         T2         TX        TY        TZ
        (cm-1)    (nm)                  (au**2)     (au)      (au)      (au)
-----------------------------------------------------------------------------
   0   24321.2    411.2   0.375960859   5.08901   1.07286  -1.96095   0.30438
   1   26531.3    376.9   0.565835355   7.02113  -1.55975  -2.12603   0.26137
   2   28438.7    351.6   0.051810436   0.59977  -0.29984   0.70873  -0.08696
   3   28988.8    345.0   0.035131878   0.39898   0.29383   0.55210   0.08843
   4   32098.1    311.5   0.527388068   5.40912   1.17306   2.00205  -0.15765
   5   33221.5    301.0   0.196601202   1.94824  -0.29649  -1.32047   0.34158
   6   33705.4    296.7   0.128085161   1.25105   0.24546   1.09017  -0.04829
   7   34473.0    290.1   0.106699171   1.01896   0.75977   0.66267  -0.05080
   8   35204.2    284.1   0.094174410   0.88067  -0.34517  -0.86202   0.13586
   9   35523.8    281.5   0.173083276   1.60402  -0.51155  -1.14902   0.14862
  10   36399.9    274.7   0.183761107   1.66199  -1.25951   0.21889  -0.16649
  11   36807.3    271.7   0.355746782   3.18187  -1.77879   0.00230  -0.13327
  12   37055.3    269.9   0.057639866   0.51209  -0.58137   0.39726   0.12764
  13   38985.6    256.5   0.026296039   0.22206   0.45663  -0.08209   0.08249
  14   39020.0    256.3   0.019636711   0.16568   0.21386  -0.25955   0.22929
  15   39435.6    253.6   0.125315039   1.04614   0.72860  -0.61704  -0.36681

FINAL SINGLE POINT ENERGY     -3422.141263730958

DIPOLE MOMENT
-------------
                                X             Y             Z
Electronic contribution:     93.14140     -45.39246      25.28346
Nuclear contribution   :    -94.97277      45.95940     -25.58518
                        -----------------------------------------
Total Dipole Moment    :     -1.83136       0.56693      -0.30172
                        -----------------------------------------
Magnitude (a.u.)       :      1.94071
Magnitude (Debye)      :      4.93288

Rotational constants in cm-1:     0.001960     0.000915     0.000655
Rotational constants in MHz :    58.763956    27.427833    19.630990

                             ****ORCA TERMINATED NORMALLY****
TOTAL RUN TIME: 0 days 0 hours 9 minutes 12 seconds 278 msec
