                         Program Version 4.2.0 -  RELEASE  -
|  1> # ORCA input file
|  2> # SCF done       -190.249802619518          0.000462292456
|  3> ! CAM-B3LYP def2-SVP def2/J RIJCOSX Grid4 TightSCF
|  4> %maxcore 5000
|  5> %tddft
|  6>     Mode sTDDFT
|  7>     Ethresh 5.0
|  8>     maxcore 5000
|  9> end
| 10>
| 11> %pal
| 12>   nprocs 6
| 13>   end
| 14> * xyz 0 1
| 15>    C       -3.18097        17.09466        -3.76730
| 16>    S       -3.00498        15.70288        -2.76395
| 17>    C       -2.46091        14.78790        -4.11573
| 18>    C       -2.42028        15.53241        -5.29192
| 19>    C       -2.83862        16.85832        -5.06316
| 20>    C       -2.04642        13.43166        -4.21791
| 21>    C       -1.67903        13.01148        -5.49978
| 22>   Si       -1.79364        14.45366        -6.68322
| 23>    S       -1.85819        12.21222        -3.02458
| 24>    C       -1.28218        11.09552        -4.23524
| 25>    C       -1.25995        11.67965        -5.48763
| 26>    C       -3.02090        14.21069        -8.08752
| 27>    C       -3.21091        15.45925        -8.95496
| 28>    C       -0.09806        14.99705        -7.29906
| 29>    C        0.57375        13.98338        -8.23129
| 30>    C       -0.79145         9.80453        -3.85801
| 31>    C       -0.42432         8.82164        -4.77048
| 32>    C        0.25824         7.66463        -4.40619
| 33>    C        0.64597         7.39848        -3.09796
| 34>    C        0.18049         8.31652        -2.12169
| 35>    C       -0.54427         9.49826        -2.49513
| 36>    N        0.35370         8.23412        -0.80562
| 37>    S       -0.33256         9.51010        -0.10513
| 38>    N       -0.87382        10.23383        -1.43738
| 39>    C        1.59088         6.38202        -2.74588
| 40>    S        2.47108         6.54246        -1.24569
| 41>    C        3.56295         5.31507        -1.74316
| 42>    C        3.22408         4.73589        -2.97263
| 43>    C        2.10001         5.35656        -3.52140
| 44>    C        4.83049         4.96265        -1.22305
| 45>    C        5.58624         4.07418        -1.99948
| 46>   Si        4.55071         3.50597        -3.45076
| 47>    S        5.71309         5.64814         0.07899
| 48>    C        7.16488         4.84259        -0.46701
| 49>    C        6.90610         4.01948        -1.54818
| 50>    C        3.99122         1.71540        -3.29814
| 51>    C        2.96615         1.29949        -4.35875
| 52>    C        5.32642         3.87780        -5.12463
| 53>    C        6.53162         2.99213        -5.45778
| 54>    C        8.42499         5.28009         0.05056
| 55>    C        9.62749         5.11741        -0.62814
| 56>    C       10.76868         5.84126        -0.30288
| 57>    C       10.81813         6.76913         0.73159
| 58>    C        9.66705         6.83022         1.56356
| 59>    C        8.48049         6.09792         1.20933
| 60>    N        9.48648         7.55216         2.66754
| 61>    S        7.98437         7.32764         3.20580
| 62>    N        7.48472         6.31372         2.06249
| 63>    C       11.87919         7.72014         0.86075
| 64>    S       13.02945         7.93623        -0.44356
| 65>    C       13.66973         9.33111         0.32829
| 66>    C       13.06254         9.60097         1.55902
| 67>    C       12.05494         8.67629         1.84038
| 68>    C       14.62307        10.28170        -0.11049
| 69>    C       14.83010        11.37437         0.73777
| 70>   Si       13.76217        11.18671         2.26244
| 71>    S       15.52167        10.38615        -1.56943
| 72>    C       16.18975        11.92737        -1.07138
| 73>    C       15.72183        12.29024         0.17389
| 74>    C       12.45895        12.53454         2.41886
| 75>    C       11.41029        12.24864         3.49968
| 76>    C       14.75697        10.94197         3.83925
| 77>    C       15.49991        12.20417         4.29056
| 78>    C       17.06847        12.65410        -1.94186
| 79>    C       17.43473        12.17288        -3.18777
| 80>    C       18.26918        12.87817        -4.06427
| 81>    C       18.78406        14.10631        -3.74401
| 82>    C       18.44969        14.64382        -2.49195
| 83>    C       17.59361        13.92656        -1.57993
| 84>    N       18.84339        15.81685        -1.99298
| 85>    S       18.20502        15.99682        -0.53124
| 86>    N       17.39851        14.60509        -0.45120
| 87>    H       -3.52948        18.00879        -3.32787
| 88>    H       -2.88193        17.61266        -5.82898
| 89>    H       -0.92184        11.15972        -6.36634
| 90>    H       -3.99608        13.91357        -7.69341
| 91>    H       -2.69773        13.38985        -8.73262
| 92>    H       -3.56693        16.29008        -8.35110
| 93>    H       -3.93584        15.27491        -9.74503
| 94>    H       -2.27106        15.75198        -9.41657
| 95>    H        0.56894        15.17670        -6.45163
| 96>    H       -0.17352        15.95194        -7.82520
| 97>    H        0.70898        13.03268        -7.72169
| 98>    H        1.55005        14.34116        -8.55190
| 99>    H       -0.03410        13.81300        -9.11645
|100>    H       -0.63574         8.97852        -5.81694
|101>    H        0.55670         6.98140        -5.18635
|102>    H        1.68106         5.08560        -4.47442
|103>    H        7.66668         3.41681        -2.01235
|104>    H        3.55464         1.54007        -2.31139
|105>    H        4.85014         1.04310        -3.36688
|106>    H        2.07982         1.92583        -4.29523
|107>    H        2.66459         0.26350        -4.21915
|108>    H        3.38438         1.40084        -5.35727
|109>    H        5.64475         4.92270        -5.17071
|110>    H        4.58392         3.75811        -5.91768
|111>    H        7.31146         3.11627        -4.71098
|112>    H        6.94535         3.25123        -6.43013
|113>    H        6.24376         1.94399        -5.47823
|114>    H        9.65826         4.47323        -1.49298
|115>    H       11.64217         5.73082        -0.92963
|116>    H       11.43759         8.69834         2.71938
|117>    H       16.02191        13.21040         0.64040
|118>    H       11.94045        12.67254         1.46620
|119>    H       12.93228        13.49410         2.64126
|120>    H       10.88856        11.31920         3.28619
|121>    H       10.67637        13.05051         3.54614
|122>    H       11.87979        12.15965         4.47622
|123>    H       15.48889        10.14079         3.70687
|124>    H       14.10289        10.61654         4.65199
|125>    H       16.18473        12.53934         3.51556
|126>    H       16.07280        12.01184         5.19527
|127>    H       14.79834        13.00879         4.49626
|128>    H       17.05481        11.21045        -3.49893
|129>    H       18.50425        12.43286        -5.01957
|130>    H       19.42243        14.66035        -4.41197
|131> *
|132>
|133>                          ****END OF INPUT****

CARTESIAN COORDINATES (ANGSTROEM)
---------------------------------
  C     -3.180970   17.094660   -3.767300
  S     -3.004980   15.702880   -2.763950
  C     -2.460910   14.787900   -4.115730
  C     -2.420280   15.532410   -5.291920
  C     -2.838620   16.858320   -5.063160
  C     -2.046420   13.431660   -4.217910
  C     -1.679030   13.011480   -5.499780
  Si    -1.793640   14.453660   -6.683220
  S     -1.858190   12.212220   -3.024580
  C     -1.282180   11.095520   -4.235240
  C     -1.259950   11.679650   -5.487630
  C     -3.020900   14.210690   -8.087520
  C     -3.210910   15.459250   -8.954960
  C     -0.098060   14.997050   -7.299060
  C      0.573750   13.983380   -8.231290
  C     -0.791450    9.804530   -3.858010
  C     -0.424320    8.821640   -4.770480
  C      0.258240    7.664630   -4.406190
  C      0.645970    7.398480   -3.097960
  C      0.180490    8.316520   -2.121690
  C     -0.544270    9.498260   -2.495130
  N      0.353700    8.234120   -0.805620
  S     -0.332560    9.510100   -0.105130
  N     -0.873820   10.233830   -1.437380
  C      1.590880    6.382020   -2.745880
  S      2.471080    6.542460   -1.245690
  C      3.562950    5.315070   -1.743160
  C      3.224080    4.735890   -2.972630
  C      2.100010    5.356560   -3.521400
  C      4.830490    4.962650   -1.223050
  C      5.586240    4.074180   -1.999480
  Si     4.550710    3.505970   -3.450760
  S      5.713090    5.648140    0.078990
  C      7.164880    4.842590   -0.467010
  C      6.906100    4.019480   -1.548180
  C      3.991220    1.715400   -3.298140
  C      2.966150    1.299490   -4.358750
  C      5.326420    3.877800   -5.124630
  C      6.531620    2.992130   -5.457780
  C      8.424990    5.280090    0.050560
  C      9.627490    5.117410   -0.628140
  C     10.768680    5.841260   -0.302880
  C     10.818130    6.769130    0.731590
  C      9.667050    6.830220    1.563560
  C      8.480490    6.097920    1.209330
  N      9.486480    7.552160    2.667540
  S      7.984370    7.327640    3.205800
  N      7.484720    6.313720    2.062490
  C     11.879190    7.720140    0.860750
  S     13.029450    7.936230   -0.443560
  C     13.669730    9.331110    0.328290
  C     13.062540    9.600970    1.559020
  C     12.054940    8.676290    1.840380
  C     14.623070   10.281700   -0.110490
  C     14.830100   11.374370    0.737770
  Si    13.762170   11.186710    2.262440
  S     15.521670   10.386150   -1.569430
  C     16.189750   11.927370   -1.071380
  C     15.721830   12.290240    0.173890
  C     12.458950   12.534540    2.418860
  C     11.410290   12.248640    3.499680
  C     14.756970   10.941970    3.839250
  C     15.499910   12.204170    4.290560
  C     17.068470   12.654100   -1.941860
  C     17.434730   12.172880   -3.187770
  C     18.269180   12.878170   -4.064270
  C     18.784060   14.106310   -3.744010
  C     18.449690   14.643820   -2.491950
  C     17.593610   13.926560   -1.579930
  N     18.843390   15.816850   -1.992980
  S     18.205020   15.996820   -0.531240
  N     17.398510   14.605090   -0.451200
  H     -3.529480   18.008790   -3.327870
  H     -2.881930   17.612660   -5.828980
  H     -0.921840   11.159720   -6.366340
  H     -3.996080   13.913570   -7.693410
  H     -2.697730   13.389850   -8.732620
  H     -3.566930   16.290080   -8.351100
  H     -3.935840   15.274910   -9.745030
  H     -2.271060   15.751980   -9.416570
  H      0.568940   15.176700   -6.451630
  H     -0.173520   15.951940   -7.825200
  H      0.708980   13.032680   -7.721690
  H      1.550050   14.341160   -8.551900
  H     -0.034100   13.813000   -9.116450
  H     -0.635740    8.978520   -5.816940
  H      0.556700    6.981400   -5.186350
  H      1.681060    5.085600   -4.474420
  H      7.666680    3.416810   -2.012350
  H      3.554640    1.540070   -2.311390
  H      4.850140    1.043100   -3.366880
  H      2.079820    1.925830   -4.295230
  H      2.664590    0.263500   -4.219150
  H      3.384380    1.400840   -5.357270
  H      5.644750    4.922700   -5.170710
  H      4.583920    3.758110   -5.917680
  H      7.311460    3.116270   -4.710980
  H      6.945350    3.251230   -6.430130
  H      6.243760    1.943990   -5.478230
  H      9.658260    4.473230   -1.492980
  H     11.642170    5.730820   -0.929630
  H     11.437590    8.698340    2.719380
  H     16.021910   13.210400    0.640400
  H     11.940450   12.672540    1.466200
  H     12.932280   13.494100    2.641260
  H     10.888560   11.319200    3.286190
  H     10.676370   13.050510    3.546140
  H     11.879790   12.159650    4.476220
  H     15.488890   10.140790    3.706870
  H     14.102890   10.616540    4.651990
  H     16.184730   12.539340    3.515560
  H     16.072800   12.011840    5.195270
  H     14.798340   13.008790    4.496260
  H     17.054810   11.210450   -3.498930
  H     18.504250   12.432860   -5.019570
  H     19.422430   14.660350   -4.411970

 Total Charge           Charge          ....    0
 Multiplicity           Mult            ....    1
 Number of Electrons    NEL             ....  596
 Basis Dimension        Dim             .... 1276

ORBITAL ENERGIES
----------------

  NO   OCC          E(Eh)            E(eV)
   0   2.0000     -89.016489     -2422.2618
   1   2.0000     -89.015959     -2422.2474
   2   2.0000     -89.012898     -2422.1641
   3   2.0000     -88.949255     -2420.4323
   4   2.0000     -88.948781     -2420.4194
   5   2.0000     -88.945520     -2420.3306
   6   2.0000     -88.943795     -2420.2837
   7   2.0000     -88.943507     -2420.2759
   8   2.0000     -88.942664     -2420.2529
   9   2.0000     -66.179838     -1800.8450
  10   2.0000     -66.178358     -1800.8047
  11   2.0000     -66.177184     -1800.7727
  12   2.0000     -14.432094      -392.7173
  13   2.0000     -14.431525      -392.7018
  14   2.0000     -14.431009      -392.6877
  15   2.0000     -14.431004      -392.6876
  16   2.0000     -14.428743      -392.6261
  17   2.0000     -14.426406      -392.5625
  18   2.0000     -10.315727      -280.7052
  19   2.0000     -10.314270      -280.6656
  20   2.0000     -10.313744      -280.6512
  21   2.0000     -10.313511      -280.6449
  22   2.0000     -10.313458      -280.6434
  23   2.0000     -10.310222      -280.5554
  24   2.0000     -10.296551      -280.1834
  25   2.0000     -10.295478      -280.1542
  26   2.0000     -10.292161      -280.0639
  27   2.0000     -10.289832      -280.0006
  28   2.0000     -10.289648      -279.9956
  29   2.0000     -10.289472      -279.9908
  30   2.0000     -10.289223      -279.9840
  31   2.0000     -10.289165      -279.9824
  32   2.0000     -10.289139      -279.9817
  33   2.0000     -10.288537      -279.9653
  34   2.0000     -10.288188      -279.9558
  35   2.0000     -10.288039      -279.9518
  36   2.0000     -10.287879      -279.9474
  37   2.0000     -10.287546      -279.9384
  38   2.0000     -10.286870      -279.9200
  39   2.0000     -10.286411      -279.9075
  40   2.0000     -10.278251      -279.6854
  41   2.0000     -10.278101      -279.6813
  42   2.0000     -10.277477      -279.6644
  43   2.0000     -10.277093      -279.6539
  44   2.0000     -10.276898      -279.6486
  45   2.0000     -10.276278      -279.6317
  46   2.0000     -10.275444      -279.6091
  47   2.0000     -10.272515      -279.5294
  48   2.0000     -10.265945      -279.3506
  49   2.0000     -10.265364      -279.3348
  50   2.0000     -10.263166      -279.2750
  51   2.0000     -10.260990      -279.2157
  52   2.0000     -10.259168      -279.1662
  53   2.0000     -10.258325      -279.1432
  54   2.0000     -10.257844      -279.1301
  55   2.0000     -10.255179      -279.0576
  56   2.0000     -10.254768      -279.0464
  57   2.0000     -10.254118      -279.0287
  58   2.0000     -10.253198      -279.0037
  59   2.0000     -10.253100      -279.0010
  60   2.0000     -10.246366      -278.8178
  61   2.0000     -10.244016      -278.7538
  62   2.0000     -10.243981      -278.7529
  63   2.0000     -10.243337      -278.7354
  64   2.0000     -10.243066      -278.7280
  65   2.0000     -10.242437      -278.7109
  66   2.0000     -10.242182      -278.7039
  67   2.0000     -10.241941      -278.6974
  68   2.0000     -10.241806      -278.6937
  69   2.0000     -10.241561      -278.6870
  70   2.0000     -10.238995      -278.6172
  71   2.0000     -10.237727      -278.5827
  72   2.0000      -8.108092      -220.6324
  73   2.0000      -8.107859      -220.6261
  74   2.0000      -8.104979      -220.5477
  75   2.0000      -8.044653      -218.9061
  76   2.0000      -8.044253      -218.8953
  77   2.0000      -8.041318      -218.8154
  78   2.0000      -8.038593      -218.7412
  79   2.0000      -8.038256      -218.7321
  80   2.0000      -8.037112      -218.7009
  81   2.0000      -6.079365      -165.4279
  82   2.0000      -6.079184      -165.4230
  83   2.0000      -6.076173      -165.3411
  84   2.0000      -6.071720      -165.2199
  85   2.0000      -6.071382      -165.2107
  86   2.0000      -6.070301      -165.1813
  87   2.0000      -6.070055      -165.1746
  88   2.0000      -6.068427      -165.1303
  89   2.0000      -6.067360      -165.1013
  90   2.0000      -6.013793      -163.6436
  91   2.0000      -6.013409      -163.6332
  92   2.0000      -6.010468      -163.5531
  93   2.0000      -6.009879      -163.5371
  94   2.0000      -6.009483      -163.5263
  95   2.0000      -6.007814      -163.4809
  96   2.0000      -6.007487      -163.4720
  97   2.0000      -6.006895      -163.4559
  98   2.0000      -6.006463      -163.4442
  99   2.0000      -6.006374      -163.4417
 100   2.0000      -6.006302      -163.4398
 101   2.0000      -6.003760      -163.3706
 102   2.0000      -6.003571      -163.3655
 103   2.0000      -6.003238      -163.3564
 104   2.0000      -6.002083      -163.3250
 105   2.0000      -6.000899      -163.2928
 106   2.0000      -6.000584      -163.2842
 107   2.0000      -5.999465      -163.2537
 108   2.0000      -5.346361      -145.4819
 109   2.0000      -5.344893      -145.4419
 110   2.0000      -5.343640      -145.4078
 111   2.0000      -3.709784      -100.9484
 112   2.0000      -3.708521      -100.9140
 113   2.0000      -3.708437      -100.9117
 114   2.0000      -3.707243      -100.8792
 115   2.0000      -3.707084      -100.8749
 116   2.0000      -3.707028      -100.8734
 117   2.0000      -3.705786      -100.8396
 118   2.0000      -3.705687      -100.8369
 119   2.0000      -3.704552      -100.8060
 120   2.0000      -1.117057       -30.3967
 121   2.0000      -1.116897       -30.3923
 122   2.0000      -1.112673       -30.2774
 123   2.0000      -0.987474       -26.8705
 124   2.0000      -0.986913       -26.8553
 125   2.0000      -0.982915       -26.7465
 126   2.0000      -0.977322       -26.5943
 127   2.0000      -0.973359       -26.4864
 128   2.0000      -0.969151       -26.3719
 129   2.0000      -0.964916       -26.2567
 130   2.0000      -0.960488       -26.1362
 131   2.0000      -0.953772       -25.9535
 132   2.0000      -0.946917       -25.7669
 133   2.0000      -0.941272       -25.6133
 134   2.0000      -0.936946       -25.4956
 135   2.0000      -0.884289       -24.0627
 136   2.0000      -0.875138       -23.8137
 137   2.0000      -0.862337       -23.4654
 138   2.0000      -0.853091       -23.2138
 139   2.0000      -0.852452       -23.1964
 140   2.0000      -0.849780       -23.1237
 141   2.0000      -0.848109       -23.0782
 142   2.0000      -0.845940       -23.0192
 143   2.0000      -0.843713       -22.9586
 144   2.0000      -0.841449       -22.8970
 145   2.0000      -0.830562       -22.6008
 146   2.0000      -0.828956       -22.5570
 147   2.0000      -0.827354       -22.5134
 148   2.0000      -0.826559       -22.4918
 149   2.0000      -0.822058       -22.3693
 150   2.0000      -0.821087       -22.3429
 151   2.0000      -0.818463       -22.2715
 152   2.0000      -0.816682       -22.2230
 153   2.0000      -0.807659       -21.9775
 154   2.0000      -0.806499       -21.9459
 155   2.0000      -0.804114       -21.8811
 156   2.0000      -0.781524       -21.2664
 157   2.0000      -0.764950       -20.8153
 158   2.0000      -0.745110       -20.2755
 159   2.0000      -0.734073       -19.9751
 160   2.0000      -0.726750       -19.7759
 161   2.0000      -0.724697       -19.7200
 162   2.0000      -0.706670       -19.2295
 163   2.0000      -0.704336       -19.1660
 164   2.0000      -0.702645       -19.1200
 165   2.0000      -0.699889       -19.0449
 166   2.0000      -0.696116       -18.9423
 167   2.0000      -0.694988       -18.9116
 168   2.0000      -0.692359       -18.8401
 169   2.0000      -0.690189       -18.7810
 170   2.0000      -0.685714       -18.6592
 171   2.0000      -0.683943       -18.6110
 172   2.0000      -0.683113       -18.5885
 173   2.0000      -0.670375       -18.2418
 174   2.0000      -0.656460       -17.8632
 175   2.0000      -0.653998       -17.7962
 176   2.0000      -0.646866       -17.6021
 177   2.0000      -0.645513       -17.5653
 178   2.0000      -0.635826       -17.3017
 179   2.0000      -0.622158       -16.9298
 180   2.0000      -0.614352       -16.7174
 181   2.0000      -0.611649       -16.6438
 182   2.0000      -0.607184       -16.5223
 183   2.0000      -0.595060       -16.1924
 184   2.0000      -0.592584       -16.1250
 185   2.0000      -0.592377       -16.1194
 186   2.0000      -0.588820       -16.0226
 187   2.0000      -0.585276       -15.9262
 188   2.0000      -0.583883       -15.8883
 189   2.0000      -0.580920       -15.8076
 190   2.0000      -0.576149       -15.6778
 191   2.0000      -0.571771       -15.5587
 192   2.0000      -0.563517       -15.3341
 193   2.0000      -0.560741       -15.2585
 194   2.0000      -0.555829       -15.1249
 195   2.0000      -0.550542       -14.9810
 196   2.0000      -0.545682       -14.8488
 197   2.0000      -0.543028       -14.7766
 198   2.0000      -0.541696       -14.7403
 199   2.0000      -0.538611       -14.6563
 200   2.0000      -0.536639       -14.6027
 201   2.0000      -0.533711       -14.5230
 202   2.0000      -0.532089       -14.4789
 203   2.0000      -0.531278       -14.4568
 204   2.0000      -0.529363       -14.4047
 205   2.0000      -0.522982       -14.2311
 206   2.0000      -0.517324       -14.0771
 207   2.0000      -0.516840       -14.0639
 208   2.0000      -0.514427       -13.9983
 209   2.0000      -0.512621       -13.9491
 210   2.0000      -0.511794       -13.9266
 211   2.0000      -0.509260       -13.8577
 212   2.0000      -0.502212       -13.6659
 213   2.0000      -0.494064       -13.4442
 214   2.0000      -0.490203       -13.3391
 215   2.0000      -0.489028       -13.3071
 216   2.0000      -0.488228       -13.2854
 217   2.0000      -0.488055       -13.2807
 218   2.0000      -0.486173       -13.2294
 219   2.0000      -0.484029       -13.1711
 220   2.0000      -0.482540       -13.1306
 221   2.0000      -0.480759       -13.0821
 222   2.0000      -0.475141       -12.9292
 223   2.0000      -0.473608       -12.8875
 224   2.0000      -0.469265       -12.7694
 225   2.0000      -0.465802       -12.6751
 226   2.0000      -0.463928       -12.6241
 227   2.0000      -0.461169       -12.5490
 228   2.0000      -0.458951       -12.4887
 229   2.0000      -0.458279       -12.4704
 230   2.0000      -0.457558       -12.4508
 231   2.0000      -0.456322       -12.4172
 232   2.0000      -0.454783       -12.3753
 233   2.0000      -0.453387       -12.3373
 234   2.0000      -0.452767       -12.3204
 235   2.0000      -0.451108       -12.2753
 236   2.0000      -0.449802       -12.2397
 237   2.0000      -0.448314       -12.1992
 238   2.0000      -0.446850       -12.1594
 239   2.0000      -0.441699       -12.0192
 240   2.0000      -0.439900       -11.9703
 241   2.0000      -0.438859       -11.9420
 242   2.0000      -0.438052       -11.9200
 243   2.0000      -0.435964       -11.8632
 244   2.0000      -0.433209       -11.7882
 245   2.0000      -0.431973       -11.7546
 246   2.0000      -0.431240       -11.7346
 247   2.0000      -0.430253       -11.7078
 248   2.0000      -0.429292       -11.6816
 249   2.0000      -0.423017       -11.5109
 250   2.0000      -0.420421       -11.4402
 251   2.0000      -0.419890       -11.4258
 252   2.0000      -0.419311       -11.4100
 253   2.0000      -0.418761       -11.3951
 254   2.0000      -0.417389       -11.3577
 255   2.0000      -0.416839       -11.3428
 256   2.0000      -0.415493       -11.3061
 257   2.0000      -0.413795       -11.2599
 258   2.0000      -0.413229       -11.2445
 259   2.0000      -0.411708       -11.2032
 260   2.0000      -0.410817       -11.1789
 261   2.0000      -0.409512       -11.1434
 262   2.0000      -0.408798       -11.1240
 263   2.0000      -0.401599       -10.9281
 264   2.0000      -0.397635       -10.8202
 265   2.0000      -0.383969       -10.4483
 266   2.0000      -0.382894       -10.4191
 267   2.0000      -0.380557       -10.3555
 268   2.0000      -0.374868       -10.2007
 269   2.0000      -0.369639       -10.0584
 270   2.0000      -0.363676        -9.8961
 271   2.0000      -0.363197        -9.8831
 272   2.0000      -0.361578        -9.8390
 273   2.0000      -0.361178        -9.8281
 274   2.0000      -0.360533        -9.8106
 275   2.0000      -0.359366        -9.7788
 276   2.0000      -0.357637        -9.7318
 277   2.0000      -0.355537        -9.6747
 278   2.0000      -0.353211        -9.6113
 279   2.0000      -0.349338        -9.5060
 280   2.0000      -0.346142        -9.4190
 281   2.0000      -0.340570        -9.2674
 282   2.0000      -0.337741        -9.1904
 283   2.0000      -0.327618        -8.9149
 284   2.0000      -0.326907        -8.8956
 285   2.0000      -0.324134        -8.8201
 286   2.0000      -0.316468        -8.6115
 287   2.0000      -0.310935        -8.4610
 288   2.0000      -0.310398        -8.4464
 289   2.0000      -0.308291        -8.3890
 290   2.0000      -0.307469        -8.3667
 291   2.0000      -0.306087        -8.3291
 292   2.0000      -0.304977        -8.2989
 293   2.0000      -0.296858        -8.0779
 294   2.0000      -0.275620        -7.5000
 295   2.0000      -0.246994        -6.7210
 296   2.0000      -0.226369        -6.1598
 297   2.0000      -0.206912        -5.6304
 298   0.0000      -0.073302        -1.9947
 299   0.0000      -0.061335        -1.6690
 300   0.0000      -0.051067        -1.3896
 301   0.0000      -0.014857        -0.4043
 302   0.0000      -0.012614        -0.3432

MULLIKEN ATOMIC CHARGES
-----------------------
   0 C :   -0.083778
   1 S :    0.133878
   2 C :   -0.123882
   3 C :   -0.131775
   4 C :    0.019056
   5 C :   -0.065534
   6 C :   -0.112679
   7 Si:    0.510916
   8 S :    0.172600
   9 C :   -0.111005
  10 C :   -0.042722
  11 C :   -0.194580
  12 C :    0.007762
  13 C :   -0.194913
  14 C :    0.012735
  15 C :    0.155268
  16 C :   -0.060714
  17 C :   -0.047657
  18 C :    0.150536
  19 C :   -0.019903
  20 C :   -0.001816
  21 N :   -0.302361
  22 S :    0.510463
  23 N :   -0.308783
  24 C :   -0.106224
  25 S :    0.169178
  26 C :   -0.073744
  27 C :   -0.121245
  28 C :   -0.034561
  29 C :   -0.078174
  30 C :   -0.114618
  31 Si:    0.521112
  32 S :    0.168826
  33 C :   -0.103654
  34 C :   -0.040479
  35 C :   -0.192602
  36 C :    0.013478
  37 C :   -0.203050
  38 C :    0.012191
  39 C :    0.161463
  40 C :   -0.055639
  41 C :   -0.063010
  42 C :    0.146339
  43 C :    0.019494
  44 C :   -0.035777
  45 N :   -0.290297
  46 S :    0.503907
  47 N :   -0.302908
  48 C :   -0.117617
  49 S :    0.115525
  50 C :   -0.079495
  51 C :   -0.103238
  52 C :   -0.041757
  53 C :   -0.068975
  54 C :   -0.108216
  55 Si:    0.516887
  56 S :    0.112645
  57 C :   -0.125669
  58 C :   -0.039078
  59 C :   -0.194259
  60 C :    0.006884
  61 C :   -0.196405
  62 C :    0.008612
  63 C :    0.177755
  64 C :   -0.079439
  65 C :    0.047819
  66 C :   -0.039320
  67 C :    0.060181
  68 C :   -0.020671
  69 N :   -0.271093
  70 S :    0.495017
  71 N :   -0.288779
  72 H :    0.018671
  73 H :   -0.017871
  74 H :   -0.030091
  75 H :    0.040898
  76 H :    0.028290
  77 H :    0.017595
  78 H :    0.014772
  79 H :    0.011593
  80 H :    0.041594
  81 H :    0.027254
  82 H :    0.015380
  83 H :    0.013478
  84 H :    0.010025
  85 H :   -0.024902
  86 H :   -0.027629
  87 H :   -0.026518
  88 H :   -0.022595
  89 H :    0.041641
  90 H :    0.028945
  91 H :    0.017903
  92 H :    0.014277
  93 H :    0.008789
  94 H :    0.040540
  95 H :    0.029201
  96 H :    0.012745
  97 H :    0.014114
  98 H :    0.013509
  99 H :   -0.025558
 100 H :   -0.011526
 101 H :   -0.002942
 102 H :   -0.008108
 103 H :    0.040750
 104 H :    0.029899
 105 H :    0.021035
 106 H :    0.014966
 107 H :    0.011317
 108 H :    0.042189
 109 H :    0.031046
 110 H :    0.022246
 111 H :    0.014251
 112 H :    0.011333
 113 H :   -0.010674
 114 H :   -0.008575
 115 H :   -0.021692
Sum of atomic charges:   -0.0000000

LOEWDIN ATOMIC CHARGES
----------------------
   0 C :   -0.193179
   1 S :    0.431851
   2 C :   -0.197106
   3 C :   -0.209725
   4 C :   -0.065702
   5 C :   -0.195558
   6 C :   -0.209319
   7 Si:    0.663590
   8 S :    0.473749
   9 C :   -0.177457
  10 C :   -0.052568
  11 C :   -0.206899
  12 C :   -0.060558
  13 C :   -0.204819
  14 C :   -0.061022
  15 C :   -0.045138
  16 C :   -0.016990
  17 C :   -0.015077
  18 C :   -0.047433
  19 C :   -0.050525
  20 C :   -0.048414
  21 N :   -0.295466
  22 S :    0.637718
  23 N :   -0.298137
  24 C :   -0.169802
  25 S :    0.471317
  26 C :   -0.196415
  27 C :   -0.205260
  28 C :   -0.054355
  29 C :   -0.194974
  30 C :   -0.205027
  31 Si:    0.664272
  32 S :    0.470837
  33 C :   -0.170400
  34 C :   -0.053323
  35 C :   -0.205583
  36 C :   -0.060571
  37 C :   -0.207481
  38 C :   -0.060146
  39 C :   -0.044305
  40 C :   -0.015664
  41 C :   -0.025613
  42 C :   -0.048216
  43 C :   -0.036530
  44 C :   -0.050427
  45 N :   -0.282675
  46 S :    0.632825
  47 N :   -0.294206
  48 C :   -0.169050
  49 S :    0.427013
  50 C :   -0.189427
  51 C :   -0.200944
  52 C :   -0.046013
  53 C :   -0.185692
  54 C :   -0.204856
  55 Si:    0.667025
  56 S :    0.428736
  57 C :   -0.174027
  58 C :   -0.041185
  59 C :   -0.204468
  60 C :   -0.060935
  61 C :   -0.205572
  62 C :   -0.060594
  63 C :   -0.032631
  64 C :   -0.033403
  65 C :   -0.012297
  66 C :   -0.032256
  67 C :   -0.050708
  68 C :   -0.042062
  69 N :   -0.287697
  70 S :    0.630688
  71 N :   -0.285958
  72 H :    0.019446
  73 H :    0.025176
  74 H :    0.021594
  75 H :    0.035343
  76 H :    0.028046
  77 H :    0.022738
  78 H :    0.023998
  79 H :    0.019909
  80 H :    0.035811
  81 H :    0.027000
  82 H :    0.022370
  83 H :    0.023717
  84 H :    0.019080
  85 H :    0.030203
  86 H :    0.029775
  87 H :    0.022987
  88 H :    0.022766
  89 H :    0.036040
  90 H :    0.027949
  91 H :    0.023132
  92 H :    0.024018
  93 H :    0.018780
  94 H :    0.035235
  95 H :    0.028096
  96 H :    0.021173
  97 H :    0.024026
  98 H :    0.020656
  99 H :    0.030059
 100 H :    0.024677
 101 H :    0.025880
 102 H :    0.026041
 103 H :    0.035842
 104 H :    0.028445
 105 H :    0.024711
 106 H :    0.024163
 107 H :    0.019803
 108 H :    0.035866
 109 H :    0.028989
 110 H :    0.024711
 111 H :    0.023967
 112 H :    0.019907
 113 H :    0.021856
 114 H :    0.032809
 115 H :    0.035431

  Mayer bond orders larger than 0.100000
B(  0-C ,  1-S ) :   1.1479 B(  0-C ,  4-C ) :   1.5622 B(  0-C , 72-H ) :   0.9724
B(  1-S ,  2-C ) :   1.1259 B(  2-C ,  3-C ) :   1.5417 B(  2-C ,  5-C ) :   1.1485
B(  3-C ,  4-C ) :   1.2451 B(  3-C ,  7-Si) :   0.9008 B(  4-C , 73-H ) :   0.9969
B(  5-C ,  6-C ) :   1.5091 B(  5-C ,  8-S ) :   1.1032 B(  6-C ,  7-Si) :   0.9015
B(  6-C , 10-C ) :   1.2691 B(  7-Si, 11-C ) :   1.0217 B(  7-Si, 13-C ) :   1.0282
B(  8-S ,  9-C ) :   1.1193 B(  9-C , 10-C ) :   1.4791 B(  9-C , 15-C ) :   1.0935
B( 10-C , 74-H ) :   0.9897 B( 11-C , 12-C ) :   1.0701 B( 11-C , 75-H ) :   0.9324
B( 11-C , 76-H ) :   0.9301 B( 12-C , 77-H ) :   0.9720 B( 12-C , 78-H ) :   0.9658
B( 12-C , 79-H ) :   0.9745 B( 13-C , 14-C ) :   1.0688 B( 13-C , 80-H ) :   0.9294
B( 13-C , 81-H ) :   0.9309 B( 14-C , 82-H ) :   0.9719 B( 14-C , 83-H ) :   0.9659
B( 14-C , 84-H ) :   0.9736 B( 15-C , 16-C ) :   1.4416 B( 15-C , 20-C ) :   1.1663
B( 16-C , 17-C ) :   1.2472 B( 16-C , 85-H ) :   0.9938 B( 17-C , 18-C ) :   1.4503
B( 17-C , 86-H ) :   0.9898 B( 18-C , 19-C ) :   1.1652 B( 18-C , 24-C ) :   1.0962
B( 19-C , 20-C ) :   1.1697 B( 19-C , 21-N ) :   1.5140 B( 20-C , 23-N ) :   1.5081
B( 21-N , 22-S ) :   1.2572 B( 21-N , 23-N ) :   0.1478 B( 22-S , 23-N ) :   1.2538
B( 24-C , 25-S ) :   1.1191 B( 24-C , 28-C ) :   1.4757 B( 25-S , 26-C ) :   1.1118
B( 26-C , 27-C ) :   1.4878 B( 26-C , 29-C ) :   1.1504 B( 27-C , 28-C ) :   1.2747
B( 27-C , 31-Si) :   0.8979 B( 28-C , 87-H ) :   0.9927 B( 29-C , 30-C ) :   1.4877
B( 29-C , 32-S ) :   1.1141 B( 30-C , 31-Si) :   0.8976 B( 30-C , 34-C ) :   1.2776
B( 31-Si, 35-C ) :   1.0277 B( 31-Si, 37-C ) :   1.0211 B( 32-S , 33-C ) :   1.1178
B( 33-C , 34-C ) :   1.4709 B( 33-C , 39-C ) :   1.0993 B( 34-C , 88-H ) :   0.9929
B( 35-C , 36-C ) :   1.0694 B( 35-C , 89-H ) :   0.9302 B( 35-C , 90-H ) :   0.9303
B( 36-C , 91-H ) :   0.9718 B( 36-C , 92-H ) :   0.9660 B( 36-C , 93-H ) :   0.9741
B( 37-C , 38-C ) :   1.0702 B( 37-C , 94-H ) :   0.9311 B( 37-C , 95-H ) :   0.9308
B( 38-C , 96-H ) :   0.9721 B( 38-C , 97-H ) :   0.9655 B( 38-C , 98-H ) :   0.9741
B( 39-C , 40-C ) :   1.4516 B( 39-C , 42-C ) :   0.1004 B( 39-C , 44-C ) :   1.1581
B( 40-C , 41-C ) :   1.2610 B( 40-C , 99-H ) :   0.9894 B( 41-C , 42-C ) :   1.4264
B( 41-C ,100-H ) :   0.9841 B( 42-C , 43-C ) :   1.1918 B( 42-C , 48-C ) :   1.1186
B( 43-C , 44-C ) :   1.1634 B( 43-C , 45-N ) :   1.5280 B( 44-C , 47-N ) :   1.5158
B( 45-N , 46-S ) :   1.2516 B( 45-N , 47-N ) :   0.1459 B( 46-S , 47-N ) :   1.2558
B( 48-C , 49-S ) :   1.0916 B( 48-C , 52-C ) :   1.5074 B( 49-S , 50-C ) :   1.1137
B( 50-C , 51-C ) :   1.5099 B( 50-C , 53-C ) :   1.1521 B( 51-C , 52-C ) :   1.2223
B( 51-C , 55-Si) :   0.8933 B( 52-C ,101-H ) :   0.9863 B( 53-C , 54-C ) :   1.5122
B( 53-C , 56-S ) :   1.1160 B( 54-C , 55-Si) :   0.8942 B( 54-C , 58-C ) :   1.2147
B( 55-Si, 59-C ) :   1.0301 B( 55-Si, 61-C ) :   1.0285 B( 56-S , 57-C ) :   1.0882
B( 57-C , 58-C ) :   1.5163 B( 57-C , 63-C ) :   1.1072 B( 58-C ,102-H ) :   0.9847
B( 59-C , 60-C ) :   1.0677 B( 59-C ,103-H ) :   0.9299 B( 59-C ,104-H ) :   0.9307
B( 60-C ,105-H ) :   0.9723 B( 60-C ,106-H ) :   0.9657 B( 60-C ,107-H ) :   0.9738
B( 61-C , 62-C ) :   1.0694 B( 61-C ,108-H ) :   0.9305 B( 61-C ,109-H ) :   0.9307
B( 62-C ,110-H ) :   0.9723 B( 62-C ,111-H ) :   0.9658 B( 62-C ,112-H ) :   0.9740
B( 63-C , 64-C ) :   1.4821 B( 63-C , 66-C ) :   0.1066 B( 63-C , 68-C ) :   1.1837
B( 64-C , 65-C ) :   1.2260 B( 64-C ,113-H ) :   0.9861 B( 65-C , 66-C ) :   1.4864
B( 65-C ,114-H ) :   0.9823 B( 66-C , 67-C ) :   1.2068 B( 66-C ,115-H ) :   1.0207
B( 67-C , 68-C ) :   1.1634 B( 67-C , 69-N ) :   1.5102 B( 68-C , 71-N ) :   1.5303
B( 69-N , 70-S ) :   1.2746 B( 69-N , 71-N ) :   0.1509 B( 70-S , 71-N ) :   1.2503

-----------------------------------------------------------------------------
         ABSORPTION SPECTRUM VIA TRANSITION ELECTRIC DIPOLE MOMENTS
-----------------------------------------------------------------------------
State   Energy  Wavelength   fosc         T2         TX        TY        TZ
        (cm-1)    (nm)                  (au**2)     (au)      (au)      (au)
-----------------------------------------------------------------------------
   0   14376.3    695.6   1.141117739  26.13118  -4.97391   0.35995  -1.12334
   1   17380.9    575.3   0.741808850  14.05064   0.64019   3.63753  -0.63969
   2   20806.8    480.6   0.465413732   7.36393  -1.20703  -1.93994   1.46412
   3   21428.4    466.7   0.026950331   0.41405  -0.45479   0.33196   0.31147
   4   23004.5    434.7   0.028313210   0.40518   0.40305   0.34144   0.35518
   5   25747.1    388.4   0.291704835   3.72984  -1.77114   0.54580  -0.54314
   6   27040.4    369.8   0.076162439   0.92726  -0.31577  -0.90968  -0.00592
   7   27445.3    364.4   0.270791751   3.24820   1.59212  -0.61728   0.57648
   8   28404.2    352.1   0.058739420   0.68081  -0.39309  -0.39321   0.60965
   9   28656.4    349.0   0.369424561   4.24404   0.53910   1.89078  -0.61513
  10   29758.8    336.0   0.326576137   3.61280  -0.27628   1.85834   0.28819
  11   31701.0    315.4   0.001378037   0.01431   0.10255   0.02366   0.05687
  12   32793.7    304.9   0.025360203   0.25459  -0.35474  -0.32077   0.16079
  13   33281.9    300.5   0.032934752   0.32578  -0.00766   0.50055   0.27416
  14   33510.1    298.4   0.010309224   0.10128   0.05421  -0.25111   0.18784
  15   33746.9    296.3   0.007566707   0.07382  -0.21030  -0.15360  -0.07744
  16   33993.9    294.2   0.008866223   0.08586   0.06254  -0.27919  -0.06329
  17   34244.8    292.0   0.006801554   0.06539  -0.13151  -0.10999   0.18972
  18   34364.1    291.0   0.023547788   0.22559  -0.14903  -0.21806   0.39475
  19   35238.7    283.8   0.006155030   0.05750  -0.12978  -0.01041   0.20137
  20   36292.0    275.5   0.020626398   0.18711  -0.21803   0.35952  -0.10157
  21   36453.3    274.3   0.018368054   0.16588  -0.10817  -0.28696  -0.26802
  22   36620.1    273.1   0.018090992   0.16264  -0.06497  -0.39721  -0.02524
  23   37187.3    268.9   0.020007986   0.17713   0.14863  -0.26356   0.29253
  24   37407.5    267.3   0.122205035   1.07549   0.01962  -0.72426  -0.74199
  25   37423.1    267.2   0.003165820   0.02785   0.09908   0.01840  -0.13302
  26   37795.6    264.6   0.057941258   0.50469  -0.18248  -0.65656   0.20080
  27   38081.4    262.6   0.018749131   0.16209   0.37939  -0.13001  -0.03530
  28   38546.5    259.4   0.028551505   0.24385  -0.01743   0.38817   0.30474
  29   38799.9    257.7   0.010071342   0.08545  -0.22076  -0.16113   0.10372
  30   38945.2    256.8   0.096362173   0.81457  -0.62247   0.63806   0.14139
  31   39181.8    255.2   0.051873578   0.43585   0.34185   0.12526   0.55073
  32   39502.5    253.1   0.009206289   0.07672   0.04784  -0.14119   0.23345
  33   39637.7    252.3   0.015165678   0.12596   0.22190  -0.03169  -0.27516
  34   39721.8    251.8   0.055470529   0.45974  -0.21223  -0.17647   0.61932
  35   39835.7    251.0   0.062583584   0.51721   0.50326   0.21762   0.46538

FINAL SINGLE POINT ENERGY     -6860.533268122916

DIPOLE MOMENT
-------------
                                X             Y             Z
Electronic contribution:     18.06237      -0.72046      56.44189
Nuclear contribution   :    -18.05282       0.65811     -57.67714
                        -----------------------------------------
Total Dipole Moment    :      0.00954      -0.06235      -1.23525
                        -----------------------------------------
Magnitude (a.u.)       :      1.23686
Magnitude (Debye)      :      3.14384

Rotational constants in cm-1:     0.000665     0.000245     0.000204
Rotational constants in MHz :    19.925192     7.359135     6.108593

                             ****ORCA TERMINATED NORMALLY****
TOTAL RUN TIME: 0 days 0 hours 10 minutes 45 seconds 415 msec
