                         Program Version 4.2.0 -  RELEASE  -
|  1> # ORCA input file
|  2> # SCF done       -180.644057718103          0.000594939787
|  3> ! CAM-B3LYP def2-SVP def2/J RIJCOSX Grid4 TightSCF
|  4> %maxcore 5000
|  5> %tddft
|  6>     Mode sTDDFT
|  7>     Ethresh 5.0
|  8>     maxcore 5000
|  9> end
| 10>
| 11> %pal
| 12>   nprocs 6
| 13>   end
| 14> * xyz 0 1
| 15>    C       -5.43657         1.23524        -4.92231
| 16>    C       -4.82797         1.95856        -3.88411
| 17>    C       -4.51813         3.25088        -4.23119
| 18>    S       -5.00274         3.56966        -5.87597
| 19>    C       -5.58471         1.97183        -6.05729
| 20>    C       -3.88368         4.26528        -3.42464
| 21>    C       -4.01128         5.61787        -3.70404
| 22>    C       -3.41537         6.61128        -2.92608
| 23>    C       -2.63297         6.32560        -1.81973
| 24>    C       -2.48261         4.94852        -1.49818
| 25>    C       -3.08439         3.93722        -2.29012
| 26>    N       -1.78203         4.61242        -0.39268
| 27>    C       -1.64785         3.34879        -0.09163
| 28>    C       -2.17668         2.31765        -0.93503
| 29>    N       -2.87319         2.63742        -1.98413
| 30>    F       -4.74349         6.02980        -4.75623
| 31>    F       -3.60762         7.88658        -3.30575
| 32>    O       -1.00478         2.98097         1.01452
| 33>    C       -0.50366         4.02661         1.84437
| 34>    C       -0.06736         3.41505         3.16313
| 35>    C       -1.94102         0.88164        -0.62005
| 36>    C       -0.81746         7.29482        -0.34502
| 37>    C       -0.49187         8.47997         0.31622
| 38>    C       -1.44313         9.46409         0.16966
| 39>    S       -2.75420         8.91082        -0.82340
| 40>    C       -2.01051         7.36051        -1.02704
| 41>    C       -1.42903        10.80143         0.71060
| 42>    C       -2.59657        11.49434         0.99124
| 43>    C       -2.59635        12.78641         1.51781
| 44>    C       -1.42987        13.48960         1.77219
| 45>    C       -0.21191        12.80961         1.49414
| 46>    C       -0.21039        11.48969         0.97551
| 47>    N        0.95890        13.42888         1.76304
| 48>    C        2.07535        12.79792         1.51494
| 49>    C        2.08551        11.48754         0.93372
| 50>    N        0.96260        10.88041         0.69147
| 51>    F       -3.79375        10.91812         0.78070
| 52>    F       -3.79124        13.35503         1.75339
| 53>    O        3.24786        13.36408         1.79380
| 54>    C        3.21018        14.66835         2.36832
| 55>    C        4.61494        15.02849         2.81585
| 56>    C        3.37047        10.81142         0.60417
| 57>    C       -0.53614        15.84133         2.05803
| 58>    C       -0.85142        17.03693         2.70653
| 59>    C       -1.99281        16.95603         3.47017
| 60>    S       -2.69521        15.37414         3.36623
| 61>    C       -1.44380        14.83587         2.29646
| 62>    C       -2.60721        17.99983         4.25876
| 63>    C       -3.34799        17.72013         5.39636
| 64>    C       -3.94051        18.73139         6.16454
| 65>    C       -3.82954        20.05112         5.82102
| 66>    C       -3.10382        20.38235         4.66672
| 67>    C       -2.48986        19.36982         3.88598
| 68>    N       -3.00615        21.68416         4.30714
| 69>    C       -2.34617        21.97104         3.21681
| 70>    C       -1.73691        20.95130         2.40843
| 71>    N       -1.81987        19.70272         2.75900
| 72>    F       -3.49430        16.44971         5.81543
| 73>    F       -4.62666        18.38284         7.26512
| 74>    O       -2.22749        23.23296         2.81283
| 75>    C       -2.86660        24.21923         3.62029
| 76>    C       -2.65737        25.57290         2.96708
| 77>    C       -1.01240        21.31264         1.15888
| 78>    H       -5.75147         0.21104        -4.83129
| 79>    H       -4.62509         1.55906        -2.90957
| 80>    H       -6.01102         1.67026        -6.99365
| 81>    H       -1.28755         4.77821         1.98729
| 82>    H        0.33955         4.50845         1.33599
| 83>    H       -0.91296         2.94200         3.65532
| 84>    H        0.33191         4.19025         3.81061
| 85>    H        0.69907         2.66362         2.99215
| 86>    H       -0.87197         0.68775        -0.55522
| 87>    H       -2.38379         0.25894        -1.39159
| 88>    H       -2.37750         0.64017         0.34785
| 89>    H       -0.19950         6.41764        -0.34918
| 90>    H        0.40179         8.62380         0.89266
| 91>    H        2.50551        14.67095         3.20706
| 92>    H        2.84402        15.37594         1.61552
| 93>    H        4.96554        14.31832         3.55985
| 94>    H        4.61613        16.02477         3.24797
| 95>    H        5.29515        15.00696         1.96857
| 96>    H        3.94780        11.42960        -0.08083
| 97>    H        3.16957         9.84573         0.15039
| 98>    H        3.96325        10.68243         1.50832
| 99>    H        0.31281        15.70989         1.41531
|100>    H       -0.26892        17.93526         2.63264
|101>    H       -4.28759        20.82516         6.41292
|102>    H       -2.43502        24.18847         4.62695
|103>    H       -3.93129        23.97418         3.70244
|104>    H       -1.59607        25.79447         2.89346
|105>    H       -3.14101        26.34336         3.56018
|106>    H       -3.08234        25.57549         1.96689
|107>    H       -1.68208        21.84484         0.48566
|108>    H       -0.64324        20.41242         0.67715
|109>    H       -0.18307        21.97925         1.39020
|110> *
|111>
|112>                          ****END OF INPUT****

CARTESIAN COORDINATES (ANGSTROEM)
---------------------------------
  C     -5.436570    1.235240   -4.922310
  C     -4.827970    1.958560   -3.884110
  C     -4.518130    3.250880   -4.231190
  S     -5.002740    3.569660   -5.875970
  C     -5.584710    1.971830   -6.057290
  C     -3.883680    4.265280   -3.424640
  C     -4.011280    5.617870   -3.704040
  C     -3.415370    6.611280   -2.926080
  C     -2.632970    6.325600   -1.819730
  C     -2.482610    4.948520   -1.498180
  C     -3.084390    3.937220   -2.290120
  N     -1.782030    4.612420   -0.392680
  C     -1.647850    3.348790   -0.091630
  C     -2.176680    2.317650   -0.935030
  N     -2.873190    2.637420   -1.984130
  F     -4.743490    6.029800   -4.756230
  F     -3.607620    7.886580   -3.305750
  O     -1.004780    2.980970    1.014520
  C     -0.503660    4.026610    1.844370
  C     -0.067360    3.415050    3.163130
  C     -1.941020    0.881640   -0.620050
  C     -0.817460    7.294820   -0.345020
  C     -0.491870    8.479970    0.316220
  C     -1.443130    9.464090    0.169660
  S     -2.754200    8.910820   -0.823400
  C     -2.010510    7.360510   -1.027040
  C     -1.429030   10.801430    0.710600
  C     -2.596570   11.494340    0.991240
  C     -2.596350   12.786410    1.517810
  C     -1.429870   13.489600    1.772190
  C     -0.211910   12.809610    1.494140
  C     -0.210390   11.489690    0.975510
  N      0.958900   13.428880    1.763040
  C      2.075350   12.797920    1.514940
  C      2.085510   11.487540    0.933720
  N      0.962600   10.880410    0.691470
  F     -3.793750   10.918120    0.780700
  F     -3.791240   13.355030    1.753390
  O      3.247860   13.364080    1.793800
  C      3.210180   14.668350    2.368320
  C      4.614940   15.028490    2.815850
  C      3.370470   10.811420    0.604170
  C     -0.536140   15.841330    2.058030
  C     -0.851420   17.036930    2.706530
  C     -1.992810   16.956030    3.470170
  S     -2.695210   15.374140    3.366230
  C     -1.443800   14.835870    2.296460
  C     -2.607210   17.999830    4.258760
  C     -3.347990   17.720130    5.396360
  C     -3.940510   18.731390    6.164540
  C     -3.829540   20.051120    5.821020
  C     -3.103820   20.382350    4.666720
  C     -2.489860   19.369820    3.885980
  N     -3.006150   21.684160    4.307140
  C     -2.346170   21.971040    3.216810
  C     -1.736910   20.951300    2.408430
  N     -1.819870   19.702720    2.759000
  F     -3.494300   16.449710    5.815430
  F     -4.626660   18.382840    7.265120
  O     -2.227490   23.232960    2.812830
  C     -2.866600   24.219230    3.620290
  C     -2.657370   25.572900    2.967080
  C     -1.012400   21.312640    1.158880
  H     -5.751470    0.211040   -4.831290
  H     -4.625090    1.559060   -2.909570
  H     -6.011020    1.670260   -6.993650
  H     -1.287550    4.778210    1.987290
  H      0.339550    4.508450    1.335990
  H     -0.912960    2.942000    3.655320
  H      0.331910    4.190250    3.810610
  H      0.699070    2.663620    2.992150
  H     -0.871970    0.687750   -0.555220
  H     -2.383790    0.258940   -1.391590
  H     -2.377500    0.640170    0.347850
  H     -0.199500    6.417640   -0.349180
  H      0.401790    8.623800    0.892660
  H      2.505510   14.670950    3.207060
  H      2.844020   15.375940    1.615520
  H      4.965540   14.318320    3.559850
  H      4.616130   16.024770    3.247970
  H      5.295150   15.006960    1.968570
  H      3.947800   11.429600   -0.080830
  H      3.169570    9.845730    0.150390
  H      3.963250   10.682430    1.508320
  H      0.312810   15.709890    1.415310
  H     -0.268920   17.935260    2.632640
  H     -4.287590   20.825160    6.412920
  H     -2.435020   24.188470    4.626950
  H     -3.931290   23.974180    3.702440
  H     -1.596070   25.794470    2.893460
  H     -3.141010   26.343360    3.560180
  H     -3.082340   25.575490    1.966890
  H     -1.682080   21.844840    0.485660
  H     -0.643240   20.412420    0.677150
  H     -0.183070   21.979250    1.390200

 Total Charge           Charge          ....    0
 Multiplicity           Mult            ....    1
 Number of Electrons    NEL             ....  470
 Basis Dimension        Dim             .... 1054

ORBITAL ENERGIES
----------------

  NO   OCC          E(Eh)            E(eV)
   0   2.0000     -88.939856     -2420.1765
   1   2.0000     -88.938614     -2420.1427
   2   2.0000     -88.937813     -2420.1209
   3   2.0000     -24.785007      -674.4343
   4   2.0000     -24.783807      -674.4017
   5   2.0000     -24.783711      -674.3991
   6   2.0000     -24.783518      -674.3938
   7   2.0000     -24.783386      -674.3902
   8   2.0000     -24.781073      -674.3273
   9   2.0000     -19.259913      -524.0889
  10   2.0000     -19.259509      -524.0779
  11   2.0000     -19.258612      -524.0535
  12   2.0000     -14.415469      -392.2649
  13   2.0000     -14.415467      -392.2648
  14   2.0000     -14.414345      -392.2343
  15   2.0000     -14.411794      -392.1648
  16   2.0000     -14.411715      -392.1627
  17   2.0000     -14.410431      -392.1277
  18   2.0000     -10.371564      -282.2246
  19   2.0000     -10.370897      -282.2065
  20   2.0000     -10.370319      -282.1907
  21   2.0000     -10.363390      -282.0022
  22   2.0000     -10.362819      -281.9866
  23   2.0000     -10.361568      -281.9526
  24   2.0000     -10.360075      -281.9120
  25   2.0000     -10.359699      -281.9017
  26   2.0000     -10.358528      -281.8699
  27   2.0000     -10.323760      -280.9238
  28   2.0000     -10.322747      -280.8962
  29   2.0000     -10.322261      -280.8830
  30   2.0000     -10.322095      -280.8785
  31   2.0000     -10.321850      -280.8718
  32   2.0000     -10.321065      -280.8505
  33   2.0000     -10.318236      -280.7735
  34   2.0000     -10.317006      -280.7400
  35   2.0000     -10.315951      -280.7113
  36   2.0000     -10.311635      -280.5939
  37   2.0000     -10.310734      -280.5693
  38   2.0000     -10.310636      -280.5667
  39   2.0000     -10.297710      -280.2149
  40   2.0000     -10.295420      -280.1526
  41   2.0000     -10.295322      -280.1500
  42   2.0000     -10.293174      -280.0915
  43   2.0000     -10.291411      -280.0435
  44   2.0000     -10.289911      -280.0027
  45   2.0000     -10.288918      -279.9757
  46   2.0000     -10.288637      -279.9681
  47   2.0000     -10.288218      -279.9567
  48   2.0000     -10.287033      -279.9244
  49   2.0000     -10.276832      -279.6468
  50   2.0000     -10.276515      -279.6382
  51   2.0000     -10.265050      -279.3262
  52   2.0000     -10.264474      -279.3105
  53   2.0000     -10.264151      -279.3018
  54   2.0000     -10.264097      -279.3003
  55   2.0000     -10.263623      -279.2874
  56   2.0000     -10.262749      -279.2636
  57   2.0000     -10.255646      -279.0703
  58   2.0000     -10.255300      -279.0609
  59   2.0000     -10.254522      -279.0397
  60   2.0000     -10.254459      -279.0380
  61   2.0000     -10.254067      -279.0273
  62   2.0000     -10.252712      -278.9905
  63   2.0000      -8.035402      -218.6544
  64   2.0000      -8.034120      -218.6195
  65   2.0000      -8.033571      -218.6046
  66   2.0000      -6.004630      -163.3943
  67   2.0000      -6.003367      -163.3599
  68   2.0000      -6.002862      -163.3462
  69   2.0000      -6.000340      -163.2776
  70   2.0000      -5.999056      -163.2426
  71   2.0000      -5.998414      -163.2251
  72   2.0000      -5.997643      -163.2042
  73   2.0000      -5.996352      -163.1690
  74   2.0000      -5.995937      -163.1577
  75   2.0000      -1.307404       -35.5763
  76   2.0000      -1.306764       -35.5588
  77   2.0000      -1.304949       -35.5095
  78   2.0000      -1.289958       -35.1016
  79   2.0000      -1.289206       -35.0811
  80   2.0000      -1.288710       -35.0676
  81   2.0000      -1.176843       -32.0235
  82   2.0000      -1.176779       -32.0218
  83   2.0000      -1.175535       -31.9879
  84   2.0000      -1.070618       -29.1330
  85   2.0000      -1.069560       -29.1042
  86   2.0000      -1.069199       -29.0944
  87   2.0000      -0.999547       -27.1990
  88   2.0000      -0.998067       -27.1588
  89   2.0000      -0.996894       -27.1269
  90   2.0000      -0.976534       -26.5728
  91   2.0000      -0.972670       -26.4677
  92   2.0000      -0.967299       -26.3215
  93   2.0000      -0.955581       -26.0027
  94   2.0000      -0.948437       -25.8083
  95   2.0000      -0.942642       -25.6506
  96   2.0000      -0.889365       -24.2009
  97   2.0000      -0.881132       -23.9768
  98   2.0000      -0.879883       -23.9428
  99   2.0000      -0.879137       -23.9225
 100   2.0000      -0.874389       -23.7933
 101   2.0000      -0.862073       -23.4582
 102   2.0000      -0.842498       -22.9255
 103   2.0000      -0.841359       -22.8945
 104   2.0000      -0.839585       -22.8463
 105   2.0000      -0.823776       -22.4161
 106   2.0000      -0.814430       -22.1618
 107   2.0000      -0.813741       -22.1430
 108   2.0000      -0.809357       -22.0237
 109   2.0000      -0.808586       -22.0027
 110   2.0000      -0.806221       -21.9384
 111   2.0000      -0.796787       -21.6817
 112   2.0000      -0.787722       -21.4350
 113   2.0000      -0.769399       -20.9364
 114   2.0000      -0.753942       -20.5158
 115   2.0000      -0.752696       -20.4819
 116   2.0000      -0.752574       -20.4786
 117   2.0000      -0.734783       -19.9945
 118   2.0000      -0.726788       -19.7769
 119   2.0000      -0.723599       -19.6901
 120   2.0000      -0.722344       -19.6560
 121   2.0000      -0.716405       -19.4944
 122   2.0000      -0.710707       -19.3393
 123   2.0000      -0.694679       -18.9032
 124   2.0000      -0.690714       -18.7953
 125   2.0000      -0.684775       -18.6337
 126   2.0000      -0.660841       -17.9824
 127   2.0000      -0.659860       -17.9557
 128   2.0000      -0.657727       -17.8977
 129   2.0000      -0.651194       -17.7199
 130   2.0000      -0.647863       -17.6292
 131   2.0000      -0.644273       -17.5316
 132   2.0000      -0.643979       -17.5235
 133   2.0000      -0.635547       -17.2941
 134   2.0000      -0.631917       -17.1953
 135   2.0000      -0.625861       -17.0305
 136   2.0000      -0.618541       -16.8314
 137   2.0000      -0.617200       -16.7949
 138   2.0000      -0.610139       -16.6027
 139   2.0000      -0.608522       -16.5587
 140   2.0000      -0.607471       -16.5301
 141   2.0000      -0.604192       -16.4409
 142   2.0000      -0.602492       -16.3946
 143   2.0000      -0.597714       -16.2646
 144   2.0000      -0.588578       -16.0160
 145   2.0000      -0.584469       -15.9042
 146   2.0000      -0.582821       -15.8594
 147   2.0000      -0.581706       -15.8290
 148   2.0000      -0.581108       -15.8127
 149   2.0000      -0.580197       -15.7880
 150   2.0000      -0.579509       -15.7692
 151   2.0000      -0.571742       -15.5579
 152   2.0000      -0.571230       -15.5440
 153   2.0000      -0.570037       -15.5115
 154   2.0000      -0.569558       -15.4985
 155   2.0000      -0.558078       -15.1861
 156   2.0000      -0.547359       -14.8944
 157   2.0000      -0.544118       -14.8062
 158   2.0000      -0.543402       -14.7867
 159   2.0000      -0.533236       -14.5101
 160   2.0000      -0.532627       -14.4935
 161   2.0000      -0.531894       -14.4736
 162   2.0000      -0.531710       -14.4686
 163   2.0000      -0.531570       -14.4648
 164   2.0000      -0.530953       -14.4480
 165   2.0000      -0.520177       -14.1547
 166   2.0000      -0.508203       -13.8289
 167   2.0000      -0.506089       -13.7714
 168   2.0000      -0.499154       -13.5827
 169   2.0000      -0.495249       -13.4764
 170   2.0000      -0.494326       -13.4513
 171   2.0000      -0.493050       -13.4166
 172   2.0000      -0.491592       -13.3769
 173   2.0000      -0.490458       -13.3461
 174   2.0000      -0.489201       -13.3118
 175   2.0000      -0.488358       -13.2889
 176   2.0000      -0.486579       -13.2405
 177   2.0000      -0.485528       -13.2119
 178   2.0000      -0.480829       -13.0840
 179   2.0000      -0.478429       -13.0187
 180   2.0000      -0.478098       -13.0097
 181   2.0000      -0.476774       -12.9737
 182   2.0000      -0.475289       -12.9333
 183   2.0000      -0.474760       -12.9189
 184   2.0000      -0.474580       -12.9140
 185   2.0000      -0.473550       -12.8859
 186   2.0000      -0.472100       -12.8465
 187   2.0000      -0.471314       -12.8251
 188   2.0000      -0.469191       -12.7673
 189   2.0000      -0.467412       -12.7189
 190   2.0000      -0.466373       -12.6906
 191   2.0000      -0.465749       -12.6737
 192   2.0000      -0.462732       -12.5916
 193   2.0000      -0.459799       -12.5118
 194   2.0000      -0.457676       -12.4540
 195   2.0000      -0.452696       -12.3185
 196   2.0000      -0.445782       -12.1303
 197   2.0000      -0.444865       -12.1054
 198   2.0000      -0.443910       -12.0794
 199   2.0000      -0.439714       -11.9652
 200   2.0000      -0.438594       -11.9347
 201   2.0000      -0.436186       -11.8692
 202   2.0000      -0.426444       -11.6041
 203   2.0000      -0.424249       -11.5444
 204   2.0000      -0.424098       -11.5403
 205   2.0000      -0.423577       -11.5261
 206   2.0000      -0.420834       -11.4515
 207   2.0000      -0.418144       -11.3783
 208   2.0000      -0.409761       -11.1502
 209   2.0000      -0.408675       -11.1206
 210   2.0000      -0.407593       -11.0912
 211   2.0000      -0.397219       -10.8089
 212   2.0000      -0.396535       -10.7903
 213   2.0000      -0.395113       -10.7516
 214   2.0000      -0.381072       -10.3695
 215   2.0000      -0.380474       -10.3532
 216   2.0000      -0.380152       -10.3445
 217   2.0000      -0.377538       -10.2733
 218   2.0000      -0.374290       -10.1850
 219   2.0000      -0.371977       -10.1220
 220   2.0000      -0.347239        -9.4489
 221   2.0000      -0.333281        -9.0691
 222   2.0000      -0.325970        -8.8701
 223   2.0000      -0.323892        -8.8135
 224   2.0000      -0.322071        -8.7640
 225   2.0000      -0.312738        -8.5100
 226   2.0000      -0.302351        -8.2274
 227   2.0000      -0.301536        -8.2052
 228   2.0000      -0.299885        -8.1603
 229   2.0000      -0.294662        -8.0182
 230   2.0000      -0.293712        -7.9923
 231   2.0000      -0.293535        -7.9875
 232   2.0000      -0.283312        -7.7093
 233   2.0000      -0.257981        -7.0200
 234   2.0000      -0.236940        -6.4475
 235   0.0000      -0.050670        -1.3788
 236   0.0000      -0.036864        -1.0031
 237   0.0000      -0.028003        -0.7620
 238   0.0000       0.005865         0.1596
 239   0.0000       0.012846         0.3496

MULLIKEN ATOMIC CHARGES
-----------------------
   0 C :    0.043154
   1 C :    0.041495
   2 C :   -0.180946
   3 S :    0.134427
   4 C :   -0.070613
   5 C :    0.113998
   6 C :    0.120969
   7 C :    0.150340
   8 C :    0.049375
   9 C :   -0.030770
  10 C :   -0.077956
  11 N :   -0.046871
  12 C :    0.103189
  13 C :   -0.186469
  14 N :    0.003928
  15 F :   -0.178180
  16 F :   -0.171534
  17 O :   -0.285792
  18 C :    0.154674
  19 C :    0.011731
  20 C :    0.128485
  21 C :    0.046075
  22 C :    0.036526
  23 C :   -0.135455
  24 S :    0.170053
  25 C :   -0.129261
  26 C :    0.080055
  27 C :    0.131974
  28 C :    0.146204
  29 C :    0.057110
  30 C :   -0.034801
  31 C :   -0.066280
  32 N :   -0.049194
  33 C :    0.105503
  34 C :   -0.191503
  35 N :    0.007393
  36 F :   -0.173941
  37 F :   -0.170626
  38 O :   -0.286280
  39 C :    0.151724
  40 C :    0.014772
  41 C :    0.132957
  42 C :    0.043902
  43 C :    0.041824
  44 C :   -0.131480
  45 S :    0.170901
  46 C :   -0.133084
  47 C :    0.066726
  48 C :    0.128960
  49 C :    0.272779
  50 C :   -0.121251
  51 C :    0.011981
  52 C :   -0.042456
  53 N :   -0.060054
  54 C :    0.102590
  55 C :   -0.187683
  56 N :    0.009396
  57 F :   -0.175705
  58 F :   -0.181602
  59 O :   -0.285812
  60 C :    0.168507
  61 C :    0.014442
  62 C :    0.130153
  63 H :   -0.017415
  64 H :   -0.013419
  65 H :    0.021977
  66 H :    0.037035
  67 H :    0.019674
  68 H :    0.025846
  69 H :    0.021497
  70 H :    0.024904
  71 H :    0.030661
  72 H :    0.023664
  73 H :    0.032060
  74 H :   -0.029305
  75 H :   -0.022617
  76 H :    0.035733
  77 H :    0.021863
  78 H :    0.025936
  79 H :    0.020590
  80 H :    0.024427
  81 H :    0.031474
  82 H :    0.022300
  83 H :    0.030507
  84 H :   -0.029526
  85 H :   -0.020979
  86 H :   -0.021778
  87 H :    0.017579
  88 H :    0.020986
  89 H :    0.024524
  90 H :    0.020784
  91 H :    0.024408
  92 H :    0.031820
  93 H :    0.022464
  94 H :    0.029654
Sum of atomic charges:   -0.0000000

LOEWDIN ATOMIC CHARGES
----------------------
   0 C :   -0.072917
   1 C :   -0.042274
   2 C :   -0.181057
   3 S :    0.444687
   4 C :   -0.187083
   5 C :   -0.052823
   6 C :    0.051437
   7 C :    0.063811
   8 C :   -0.070934
   9 C :    0.002836
  10 C :   -0.019840
  11 N :   -0.081551
  12 C :    0.049217
  13 C :   -0.012538
  14 N :   -0.029337
  15 F :   -0.055500
  16 F :   -0.051468
  17 O :   -0.083159
  18 C :    0.088626
  19 C :   -0.062528
  20 C :   -0.050838
  21 C :   -0.048985
  22 C :   -0.045164
  23 C :   -0.177118
  24 S :    0.464925
  25 C :   -0.173840
  26 C :   -0.056426
  27 C :    0.052633
  28 C :    0.063603
  29 C :   -0.069689
  30 C :    0.002360
  31 C :   -0.019352
  32 N :   -0.082343
  33 C :    0.049522
  34 C :   -0.013188
  35 N :   -0.030066
  36 F :   -0.053872
  37 F :   -0.050950
  38 O :   -0.083328
  39 C :    0.088276
  40 C :   -0.062306
  41 C :   -0.050703
  42 C :   -0.049015
  43 C :   -0.043907
  44 C :   -0.178232
  45 S :    0.465230
  46 C :   -0.173651
  47 C :   -0.051931
  48 C :    0.049185
  49 C :    0.067590
  50 C :   -0.053036
  51 C :   -0.005736
  52 C :   -0.023267
  53 N :   -0.094380
  54 C :    0.048818
  55 C :   -0.013745
  56 N :   -0.031403
  57 F :   -0.055944
  58 F :   -0.056167
  59 O :   -0.082793
  60 C :    0.088594
  61 C :   -0.062692
  62 C :   -0.050986
  63 H :    0.027135
  64 H :    0.024785
  65 H :    0.021379
  66 H :    0.022598
  67 H :    0.017358
  68 H :    0.029483
  69 H :    0.033366
  70 H :    0.028809
  71 H :    0.040212
  72 H :    0.036990
  73 H :    0.041103
  74 H :    0.022870
  75 H :    0.024196
  76 H :    0.022253
  77 H :    0.017666
  78 H :    0.029414
  79 H :    0.033225
  80 H :    0.028845
  81 H :    0.040718
  82 H :    0.036846
  83 H :    0.040310
  84 H :    0.023082
  85 H :    0.024688
  86 H :    0.043654
  87 H :    0.018397
  88 H :    0.018975
  89 H :    0.028781
  90 H :    0.033165
  91 H :    0.029103
  92 H :    0.040915
  93 H :    0.036647
  94 H :    0.039742

  Mayer bond orders larger than 0.100000
B(  0-C ,  1-C ) :   1.2533 B(  0-C ,  4-C ) :   1.5489 B(  0-C , 63-H ) :   0.9944
B(  1-C ,  2-C ) :   1.5467 B(  1-C , 64-H ) :   0.9873 B(  2-C ,  3-S ) :   1.1368
B(  2-C ,  5-C ) :   1.0865 B(  3-S ,  4-C ) :   1.1751 B(  4-C , 65-H ) :   0.9738
B(  5-C ,  6-C ) :   1.3483 B(  5-C ,  8-C ) :   0.1256 B(  5-C , 10-C ) :   1.2267
B(  6-C ,  7-C ) :   1.1969 B(  6-C , 15-F ) :   1.1412 B(  7-C ,  8-C ) :   1.3627
B(  7-C , 16-F ) :   1.1611 B(  8-C ,  9-C ) :   1.2443 B(  8-C , 25-C ) :   1.0372
B(  9-C , 10-C ) :   1.2446 B(  9-C , 11-N ) :   1.4517 B( 10-C , 14-N ) :   1.4230
B( 11-N , 12-C ) :   1.5777 B( 12-C , 13-C ) :   1.1429 B( 12-C , 17-O ) :   1.2654
B( 13-C , 14-N ) :   1.7326 B( 13-C , 20-C ) :   1.0649 B( 17-O , 18-C ) :   0.8992
B( 18-C , 19-C ) :   1.0962 B( 18-C , 66-H ) :   0.9536 B( 18-C , 67-H ) :   0.9596
B( 19-C , 68-H ) :   0.9701 B( 19-C , 69-H ) :   0.9616 B( 19-C , 70-H ) :   0.9673
B( 20-C , 71-H ) :   0.9484 B( 20-C , 72-H ) :   0.9447 B( 20-C , 73-H ) :   0.9466
B( 21-C , 22-C ) :   1.2485 B( 21-C , 25-C ) :   1.5213 B( 21-C , 74-H ) :   0.9954
B( 22-C , 23-C ) :   1.5185 B( 22-C , 75-H ) :   0.9930 B( 23-C , 24-S ) :   1.1317
B( 23-C , 25-C ) :   0.1124 B( 23-C , 26-C ) :   1.0556 B( 24-S , 25-C ) :   1.1386
B( 26-C , 27-C ) :   1.3523 B( 26-C , 29-C ) :   0.1299 B( 26-C , 31-C ) :   1.2392
B( 27-C , 28-C ) :   1.1924 B( 27-C , 36-F ) :   1.1523 B( 28-C , 29-C ) :   1.3567
B( 28-C , 37-F ) :   1.1600 B( 29-C , 30-C ) :   1.2436 B( 29-C , 46-C ) :   1.0374
B( 30-C , 31-C ) :   1.2451 B( 30-C , 32-N ) :   1.4506 B( 31-C , 35-N ) :   1.4245
B( 32-N , 33-C ) :   1.5776 B( 33-C , 34-C ) :   1.1417 B( 33-C , 38-O ) :   1.2637
B( 34-C , 35-N ) :   1.7376 B( 34-C , 41-C ) :   1.0666 B( 38-O , 39-C ) :   0.9004
B( 39-C , 40-C ) :   1.0964 B( 39-C , 76-H ) :   0.9541 B( 39-C , 77-H ) :   0.9591
B( 40-C , 78-H ) :   0.9696 B( 40-C , 79-H ) :   0.9615 B( 40-C , 80-H ) :   0.9671
B( 41-C , 81-H ) :   0.9475 B( 41-C , 82-H ) :   0.9434 B( 41-C , 83-H ) :   0.9463
B( 42-C , 43-C ) :   1.2485 B( 42-C , 46-C ) :   1.5246 B( 42-C , 84-H ) :   0.9952
B( 43-C , 44-C ) :   1.5253 B( 43-C , 85-H ) :   0.9925 B( 44-C , 45-S ) :   1.1334
B( 44-C , 46-C ) :   0.1128 B( 44-C , 47-C ) :   1.0440 B( 45-S , 46-C ) :   1.1393
B( 47-C , 48-C ) :   1.3685 B( 47-C , 50-C ) :   0.1242 B( 47-C , 52-C ) :   1.2312
B( 48-C , 49-C ) :   1.1993 B( 48-C , 57-F ) :   1.1525 B( 49-C , 50-C ) :   1.3736
B( 49-C , 58-F ) :   1.1108 B( 50-C , 51-C ) :   1.2091 B( 50-C , 86-H ) :   1.0408
B( 51-C , 52-C ) :   1.2559 B( 51-C , 53-N ) :   1.3808 B( 52-C , 56-N ) :   1.4189
B( 53-N , 54-C ) :   1.5866 B( 54-C , 55-C ) :   1.1369 B( 54-C , 59-O ) :   1.2671
B( 55-C , 56-N ) :   1.7455 B( 55-C , 62-C ) :   1.0662 B( 59-O , 60-C ) :   0.9012
B( 60-C , 61-C ) :   1.0932 B( 60-C , 87-H ) :   0.9579 B( 60-C , 88-H ) :   0.9569
B( 61-C , 89-H ) :   0.9686 B( 61-C , 90-H ) :   0.9614 B( 61-C , 91-H ) :   0.9690
B( 62-C , 92-H ) :   0.9474 B( 62-C , 93-H ) :   0.9442 B( 62-C , 94-H ) :   0.9471

-----------------------------------------------------------------------------
         ABSORPTION SPECTRUM VIA TRANSITION ELECTRIC DIPOLE MOMENTS
-----------------------------------------------------------------------------
State   Energy  Wavelength   fosc         T2         TX        TY        TZ
        (cm-1)    (nm)                  (au**2)     (au)      (au)      (au)
-----------------------------------------------------------------------------
   0   24259.9    412.2   1.565572513  21.24515   0.54979   4.08393   2.06505
   1   27585.5    362.5   0.146120473   1.74383   1.23974  -0.21580   0.40039
   2   29354.1    340.7   0.147546356   1.65476   0.62620  -0.96069  -0.58285
   3   30953.2    323.1   0.027567158   0.29320   0.52400   0.07084   0.11663
   4   33047.0    302.6   0.048453199   0.48269   0.45479   0.51972  -0.07581
   5   33473.0    298.7   0.051411686   0.50564  -0.65189  -0.24628  -0.14149
   6   33797.3    295.9   0.135806953   1.32287   0.68863  -0.32577   0.86170
   7   34429.4    290.4   0.034444727   0.32936  -0.00461   0.48420   0.30804
   8   35048.4    285.3   0.311516259   2.92609   0.04949   1.68615   0.28383
   9   35334.0    283.0   0.131749095   1.22752  -0.17782  -0.08348   1.09038
  10   35496.2    281.7   0.071777631   0.66571  -0.04401  -0.27155   0.76814
  11   35784.5    279.5   0.108418507   0.99743  -0.18303   0.88374   0.42772
  12   37303.9    268.1   0.126632809   1.11755  -0.53597  -0.91022  -0.04235
  13   38155.6    262.1   0.061368771   0.52950   0.31210   0.56414   0.33741
  14   38471.4    259.9   0.297679107   2.54733  -0.11353   1.43223   0.69511
  15   38930.2    256.9   0.038034148   0.32163  -0.43100  -0.25547   0.26573
  16   39259.3    254.7   0.123202450   1.03312   0.95606  -0.34124  -0.05121
  17   39718.7    251.8   0.190947255   1.58268  -1.02919   0.37207  -0.62050
  18   40272.5    248.3   0.303202556   2.47857  -1.50295  -0.44334   0.15219

FINAL SINGLE POINT ENERGY     -4078.080857518389

DIPOLE MOMENT
-------------
                                X             Y             Z
Electronic contribution:    -58.14312     -16.65971     -13.42610
Nuclear contribution   :     60.66867      17.66037      14.24443
                        -----------------------------------------
Total Dipole Moment    :      2.52555       1.00066       0.81834
                        -----------------------------------------
Magnitude (a.u.)       :      2.83715
Magnitude (Debye)      :      7.21146

Rotational constants in cm-1:     0.002241     0.000340     0.000324
Rotational constants in MHz :    67.169844    10.179835     9.722387

                             ****ORCA TERMINATED NORMALLY****
TOTAL RUN TIME: 0 days 0 hours 6 minutes 59 seconds 120 msec
