                         Program Version 4.2.0 -  RELEASE  -
|  1> # ORCA input file
|  2> # SCF done       -171.135196931403          0.000399904629
|  3> ! CAM-B3LYP def2-SVP def2/J RIJCOSX Grid4 TightSCF
|  4> %maxcore 5000
|  5> %tddft
|  6>     Mode sTDDFT
|  7>     Ethresh 5.0
|  8>     maxcore 5000
|  9> end
| 10>
| 11> %pal
| 12>   nprocs 6
| 13>   end
| 14> * xyz 0 1
| 15>    C        5.73597         3.96791         4.59087
| 16>    C        4.86985         4.99515         4.18798
| 17>    C        4.02375         4.62663         3.16772
| 18>    S        4.31405         2.96510         2.71551
| 19>    C        5.55606         2.82043         3.87959
| 20>    C        3.01676         5.41781         2.50802
| 21>    C        2.02167         4.84783         1.72582
| 22>    C        1.02023         5.58715         1.09723
| 23>    C        0.93084         6.97026         1.18973
| 24>    C        1.95213         7.59429         1.96585
| 25>    C        2.97104         6.84132         2.60788
| 26>    N        1.92672         8.93679         2.07281
| 27>    C        2.86233         9.53965         2.76912
| 28>    C        3.89243         8.77817         3.39416
| 29>    N        3.92985         7.48693         3.30704
| 30>    F        1.97070         3.51319         1.55320
| 31>    F        0.12485         4.87742         0.38858
| 32>    O        2.89711        10.85186         2.91282
| 33>    C        1.88738        11.62068         2.25757
| 34>    C        2.15056        13.08831         2.53307
| 35>    C       -1.16376         7.31159        -0.20849
| 36>    C       -1.99638         8.33806        -0.64292
| 37>    C       -1.59152         9.58721        -0.22017
| 38>    S       -0.13387         9.46834         0.73167
| 39>    C       -0.10344         7.74667         0.56509
| 40>    C       -2.22464        10.85135        -0.47859
| 41>    C       -1.55109        12.05937        -0.35545
| 42>    C       -2.13247        13.29554        -0.62909
| 43>    C       -3.44982        13.43485        -1.04749
| 44>    C       -4.18528        12.21721        -1.15313
| 45>    C       -3.59274        10.95744        -0.87517
| 46>    N       -5.47886        12.29553        -1.52086
| 47>    C       -6.18641        11.19258        -1.60487
| 48>    C       -5.58722         9.93305        -1.30912
| 49>    N       -4.34397         9.83832        -0.96017
| 50>    F       -0.25440        12.08385         0.01544
| 51>    F       -1.33214        14.36729        -0.47519
| 52>    O       -7.46227        11.20031        -1.94417
| 53>    C       -8.07871        12.46395        -2.19685
| 54>    C       -9.55777        12.23336        -2.43973
| 55>    C       -3.51465        15.96376        -1.29899
| 56>    C       -4.37585        16.96531        -1.74110
| 57>    C       -5.59881        16.48691        -2.15623
| 58>    S       -5.67974        14.75601        -1.97059
| 59>    C       -4.05689        14.69488        -1.37320
| 60>    C       -6.70248        17.23976        -2.69772
| 61>    C       -8.00862        16.77720        -2.63713
| 62>    C       -9.08600        17.50087        -3.16406
| 63>    C       -8.91023        18.71125        -3.77541
| 64>    C       -7.60627        19.22326        -3.87363
| 65>    C       -6.50394        18.49750        -3.34552
| 66>    N       -7.42559        20.41479        -4.48586
| 67>    C       -6.20149        20.87087        -4.58886
| 68>    C       -5.09278        20.12801        -4.08618
| 69>    N       -5.25286        18.98805        -3.48973
| 70>    F       -8.29383        15.60478        -2.03487
| 71>    F      -10.31828        16.97639        -3.05414
| 72>    O       -5.95958        22.03538        -5.17813
| 73>    C       -7.09227        22.73987        -5.68529
| 74>    C       -6.59984        24.01579        -6.34243
| 75>    H        6.46295         4.07518         5.37577
| 76>    H        4.85499         5.97492         4.62376
| 77>    H        6.08000         1.89004         3.97698
| 78>    H        4.67411         9.27142         3.95323
| 79>    H        0.90604        11.31523         2.63330
| 80>    H        1.91700        11.40895         1.18535
| 81>    H        2.09490        13.29117         3.59895
| 82>    H        1.40664        13.68486         2.01475
| 83>    H        3.13859        13.36558         2.17677
| 84>    H       -1.34207         6.28338        -0.45835
| 85>    H       -2.86554         8.18184        -1.25208
| 86>    H       -6.16968         9.02494        -1.36201
| 87>    H       -7.60028        12.92588        -3.06621
| 88>    H       -7.91733        13.11972        -1.33660
| 89>    H       -9.70624        11.60182        -3.31136
| 90>    H      -10.04397        13.19000        -2.60271
| 91>    H      -10.00800        11.74882        -1.57770
| 92>    H       -2.52563        16.17302        -0.93871
| 93>    H       -4.12010        18.00739        -1.75508
| 94>    H       -9.74106        19.26640        -4.17600
| 95>    H       -4.08570        20.50168        -4.20035
| 96>    H       -7.77700        22.95381        -4.85692
| 97>    H       -7.61755        22.09732        -6.40079
| 98>    H       -6.07639        24.63284        -5.61740
| 99>    H       -7.44416        24.57166        -6.73905
|100>    H       -5.91684        23.77933        -7.15361
|101> *
|102>
|103>                          ****END OF INPUT****

CARTESIAN COORDINATES (ANGSTROEM)
---------------------------------
  C      5.735970    3.967910    4.590870
  C      4.869850    4.995150    4.187980
  C      4.023750    4.626630    3.167720
  S      4.314050    2.965100    2.715510
  C      5.556060    2.820430    3.879590
  C      3.016760    5.417810    2.508020
  C      2.021670    4.847830    1.725820
  C      1.020230    5.587150    1.097230
  C      0.930840    6.970260    1.189730
  C      1.952130    7.594290    1.965850
  C      2.971040    6.841320    2.607880
  N      1.926720    8.936790    2.072810
  C      2.862330    9.539650    2.769120
  C      3.892430    8.778170    3.394160
  N      3.929850    7.486930    3.307040
  F      1.970700    3.513190    1.553200
  F      0.124850    4.877420    0.388580
  O      2.897110   10.851860    2.912820
  C      1.887380   11.620680    2.257570
  C      2.150560   13.088310    2.533070
  C     -1.163760    7.311590   -0.208490
  C     -1.996380    8.338060   -0.642920
  C     -1.591520    9.587210   -0.220170
  S     -0.133870    9.468340    0.731670
  C     -0.103440    7.746670    0.565090
  C     -2.224640   10.851350   -0.478590
  C     -1.551090   12.059370   -0.355450
  C     -2.132470   13.295540   -0.629090
  C     -3.449820   13.434850   -1.047490
  C     -4.185280   12.217210   -1.153130
  C     -3.592740   10.957440   -0.875170
  N     -5.478860   12.295530   -1.520860
  C     -6.186410   11.192580   -1.604870
  C     -5.587220    9.933050   -1.309120
  N     -4.343970    9.838320   -0.960170
  F     -0.254400   12.083850    0.015440
  F     -1.332140   14.367290   -0.475190
  O     -7.462270   11.200310   -1.944170
  C     -8.078710   12.463950   -2.196850
  C     -9.557770   12.233360   -2.439730
  C     -3.514650   15.963760   -1.298990
  C     -4.375850   16.965310   -1.741100
  C     -5.598810   16.486910   -2.156230
  S     -5.679740   14.756010   -1.970590
  C     -4.056890   14.694880   -1.373200
  C     -6.702480   17.239760   -2.697720
  C     -8.008620   16.777200   -2.637130
  C     -9.086000   17.500870   -3.164060
  C     -8.910230   18.711250   -3.775410
  C     -7.606270   19.223260   -3.873630
  C     -6.503940   18.497500   -3.345520
  N     -7.425590   20.414790   -4.485860
  C     -6.201490   20.870870   -4.588860
  C     -5.092780   20.128010   -4.086180
  N     -5.252860   18.988050   -3.489730
  F     -8.293830   15.604780   -2.034870
  F    -10.318280   16.976390   -3.054140
  O     -5.959580   22.035380   -5.178130
  C     -7.092270   22.739870   -5.685290
  C     -6.599840   24.015790   -6.342430
  H      6.462950    4.075180    5.375770
  H      4.854990    5.974920    4.623760
  H      6.080000    1.890040    3.976980
  H      4.674110    9.271420    3.953230
  H      0.906040   11.315230    2.633300
  H      1.917000   11.408950    1.185350
  H      2.094900   13.291170    3.598950
  H      1.406640   13.684860    2.014750
  H      3.138590   13.365580    2.176770
  H     -1.342070    6.283380   -0.458350
  H     -2.865540    8.181840   -1.252080
  H     -6.169680    9.024940   -1.362010
  H     -7.600280   12.925880   -3.066210
  H     -7.917330   13.119720   -1.336600
  H     -9.706240   11.601820   -3.311360
  H    -10.043970   13.190000   -2.602710
  H    -10.008000   11.748820   -1.577700
  H     -2.525630   16.173020   -0.938710
  H     -4.120100   18.007390   -1.755080
  H     -9.741060   19.266400   -4.176000
  H     -4.085700   20.501680   -4.200350
  H     -7.777000   22.953810   -4.856920
  H     -7.617550   22.097320   -6.400790
  H     -6.076390   24.632840   -5.617400
  H     -7.444160   24.571660   -6.739050
  H     -5.916840   23.779330   -7.153610

 Total Charge           Charge          ....    0
 Multiplicity           Mult            ....    1
 Number of Electrons    NEL             ....  446
 Basis Dimension        Dim             ....  982

ORBITAL ENERGIES
----------------

  NO   OCC          E(Eh)            E(eV)
   0   2.0000     -88.940866     -2420.2040
   1   2.0000     -88.940625     -2420.1975
   2   2.0000     -88.938900     -2420.1505
   3   2.0000     -24.795053      -674.7077
   4   2.0000     -24.794801      -674.7008
   5   2.0000     -24.794370      -674.6891
   6   2.0000     -24.790747      -674.5905
   7   2.0000     -24.789004      -674.5431
   8   2.0000     -24.788628      -674.5329
   9   2.0000     -19.261667      -524.1366
  10   2.0000     -19.260441      -524.1033
  11   2.0000     -19.260168      -524.0958
  12   2.0000     -14.426658      -392.5693
  13   2.0000     -14.426079      -392.5536
  14   2.0000     -14.425800      -392.5460
  15   2.0000     -14.421138      -392.4191
  16   2.0000     -14.420048      -392.3895
  17   2.0000     -14.415786      -392.2735
  18   2.0000     -10.381247      -282.4881
  19   2.0000     -10.379904      -282.4515
  20   2.0000     -10.376117      -282.3485
  21   2.0000     -10.371122      -282.2126
  22   2.0000     -10.370639      -282.1994
  23   2.0000     -10.368746      -282.1479
  24   2.0000     -10.365632      -282.0632
  25   2.0000     -10.365286      -282.0538
  26   2.0000     -10.363140      -281.9954
  27   2.0000     -10.326350      -280.9943
  28   2.0000     -10.324997      -280.9575
  29   2.0000     -10.324313      -280.9388
  30   2.0000     -10.323391      -280.9138
  31   2.0000     -10.319495      -280.8077
  32   2.0000     -10.319046      -280.7955
  33   2.0000     -10.318905      -280.7917
  34   2.0000     -10.318813      -280.7892
  35   2.0000     -10.317825      -280.7623
  36   2.0000     -10.317778      -280.7610
  37   2.0000     -10.316934      -280.7381
  38   2.0000     -10.316430      -280.7243
  39   2.0000     -10.304214      -280.3919
  40   2.0000     -10.301806      -280.3264
  41   2.0000     -10.301173      -280.3092
  42   2.0000     -10.299415      -280.2613
  43   2.0000     -10.297672      -280.2139
  44   2.0000     -10.294534      -280.1285
  45   2.0000     -10.292728      -280.0794
  46   2.0000     -10.290887      -280.0293
  47   2.0000     -10.283437      -279.8265
  48   2.0000     -10.282811      -279.8095
  49   2.0000     -10.281488      -279.7735
  50   2.0000     -10.279151      -279.7099
  51   2.0000     -10.264218      -279.3036
  52   2.0000     -10.257867      -279.1307
  53   2.0000     -10.257785      -279.1285
  54   2.0000     -10.257136      -279.1109
  55   2.0000     -10.256873      -279.1037
  56   2.0000     -10.255746      -279.0730
  57   2.0000     -10.255107      -279.0556
  58   2.0000     -10.254955      -279.0515
  59   2.0000     -10.252423      -278.9826
  60   2.0000      -8.036457      -218.6831
  61   2.0000      -8.033729      -218.6089
  62   2.0000      -8.031966      -218.5609
  63   2.0000      -6.005762      -163.4251
  64   2.0000      -6.003305      -163.3582
  65   2.0000      -6.001563      -163.3108
  66   2.0000      -6.001285      -163.3033
  67   2.0000      -5.998855      -163.2372
  68   2.0000      -5.998506      -163.2276
  69   2.0000      -5.996730      -163.1793
  70   2.0000      -5.996031      -163.1603
  71   2.0000      -5.994250      -163.1118
  72   2.0000      -1.317232       -35.8437
  73   2.0000      -1.314018       -35.7563
  74   2.0000      -1.313491       -35.7419
  75   2.0000      -1.298326       -35.3292
  76   2.0000      -1.296877       -35.2898
  77   2.0000      -1.294509       -35.2254
  78   2.0000      -1.180755       -32.1300
  79   2.0000      -1.179580       -32.0980
  80   2.0000      -1.178497       -32.0685
  81   2.0000      -1.078342       -29.3432
  82   2.0000      -1.077381       -29.3170
  83   2.0000      -1.074335       -29.2341
  84   2.0000      -1.008047       -27.4304
  85   2.0000      -1.006660       -27.3926
  86   2.0000      -1.000889       -27.2356
  87   2.0000      -0.977479       -26.5985
  88   2.0000      -0.974005       -26.5040
  89   2.0000      -0.968409       -26.3518
  90   2.0000      -0.959506       -26.1095
  91   2.0000      -0.951517       -25.8921
  92   2.0000      -0.945112       -25.7178
  93   2.0000      -0.892031       -24.2734
  94   2.0000      -0.878695       -23.9105
  95   2.0000      -0.875112       -23.8130
  96   2.0000      -0.874579       -23.7985
  97   2.0000      -0.873766       -23.7764
  98   2.0000      -0.863757       -23.5040
  99   2.0000      -0.837955       -22.8019
 100   2.0000      -0.835732       -22.7414
 101   2.0000      -0.834793       -22.7159
 102   2.0000      -0.822350       -22.3773
 103   2.0000      -0.815758       -22.1979
 104   2.0000      -0.812939       -22.1212
 105   2.0000      -0.811595       -22.0846
 106   2.0000      -0.798915       -21.7396
 107   2.0000      -0.778525       -21.1847
 108   2.0000      -0.767981       -20.8978
 109   2.0000      -0.767392       -20.8818
 110   2.0000      -0.766758       -20.8646
 111   2.0000      -0.747649       -20.3446
 112   2.0000      -0.745783       -20.2938
 113   2.0000      -0.742473       -20.2037
 114   2.0000      -0.737921       -20.0799
 115   2.0000      -0.721414       -19.6307
 116   2.0000      -0.710380       -19.3304
 117   2.0000      -0.702002       -19.1024
 118   2.0000      -0.697617       -18.9831
 119   2.0000      -0.692121       -18.8336
 120   2.0000      -0.667446       -18.1621
 121   2.0000      -0.665116       -18.0987
 122   2.0000      -0.664497       -18.0819
 123   2.0000      -0.659598       -17.9486
 124   2.0000      -0.656264       -17.8579
 125   2.0000      -0.651440       -17.7266
 126   2.0000      -0.649192       -17.6654
 127   2.0000      -0.643601       -17.5133
 128   2.0000      -0.641266       -17.4497
 129   2.0000      -0.630222       -17.1492
 130   2.0000      -0.628912       -17.1136
 131   2.0000      -0.624523       -16.9941
 132   2.0000      -0.613028       -16.6813
 133   2.0000      -0.612431       -16.6651
 134   2.0000      -0.609237       -16.5782
 135   2.0000      -0.608119       -16.5478
 136   2.0000      -0.606858       -16.5135
 137   2.0000      -0.605463       -16.4755
 138   2.0000      -0.595525       -16.2051
 139   2.0000      -0.591052       -16.0833
 140   2.0000      -0.587248       -15.9798
 141   2.0000      -0.584201       -15.8969
 142   2.0000      -0.583930       -15.8896
 143   2.0000      -0.582405       -15.8481
 144   2.0000      -0.581398       -15.8206
 145   2.0000      -0.577956       -15.7270
 146   2.0000      -0.577687       -15.7197
 147   2.0000      -0.576397       -15.6846
 148   2.0000      -0.575212       -15.6523
 149   2.0000      -0.571500       -15.5513
 150   2.0000      -0.561682       -15.2841
 151   2.0000      -0.548593       -14.9280
 152   2.0000      -0.547161       -14.8890
 153   2.0000      -0.541747       -14.7417
 154   2.0000      -0.540060       -14.6958
 155   2.0000      -0.537412       -14.6237
 156   2.0000      -0.532140       -14.4803
 157   2.0000      -0.529670       -14.4130
 158   2.0000      -0.528204       -14.3732
 159   2.0000      -0.527011       -14.3407
 160   2.0000      -0.526259       -14.3202
 161   2.0000      -0.523658       -14.2495
 162   2.0000      -0.514978       -14.0133
 163   2.0000      -0.498731       -13.5712
 164   2.0000      -0.497415       -13.5354
 165   2.0000      -0.495189       -13.4748
 166   2.0000      -0.493590       -13.4313
 167   2.0000      -0.492935       -13.4134
 168   2.0000      -0.489608       -13.3229
 169   2.0000      -0.485277       -13.2051
 170   2.0000      -0.482769       -13.1368
 171   2.0000      -0.482335       -13.1250
 172   2.0000      -0.481596       -13.1049
 173   2.0000      -0.480473       -13.0743
 174   2.0000      -0.477839       -13.0026
 175   2.0000      -0.475102       -12.9282
 176   2.0000      -0.471603       -12.8330
 177   2.0000      -0.470201       -12.7948
 178   2.0000      -0.468909       -12.7597
 179   2.0000      -0.467460       -12.7202
 180   2.0000      -0.464330       -12.6351
 181   2.0000      -0.463320       -12.6076
 182   2.0000      -0.461717       -12.5640
 183   2.0000      -0.457332       -12.4446
 184   2.0000      -0.455120       -12.3844
 185   2.0000      -0.454388       -12.3645
 186   2.0000      -0.449927       -12.2431
 187   2.0000      -0.445997       -12.1362
 188   2.0000      -0.444459       -12.0944
 189   2.0000      -0.441276       -12.0077
 190   2.0000      -0.431265       -11.7353
 191   2.0000      -0.429537       -11.6883
 192   2.0000      -0.427915       -11.6442
 193   2.0000      -0.426449       -11.6043
 194   2.0000      -0.424504       -11.5513
 195   2.0000      -0.424228       -11.5438
 196   2.0000      -0.420327       -11.4377
 197   2.0000      -0.417339       -11.3564
 198   2.0000      -0.416269       -11.3272
 199   2.0000      -0.409369       -11.1395
 200   2.0000      -0.407506       -11.0888
 201   2.0000      -0.398012       -10.8305
 202   2.0000      -0.388016       -10.5585
 203   2.0000      -0.386004       -10.5037
 204   2.0000      -0.384945       -10.4749
 205   2.0000      -0.383882       -10.4460
 206   2.0000      -0.364571        -9.9205
 207   2.0000      -0.360038        -9.7971
 208   2.0000      -0.358283        -9.7494
 209   2.0000      -0.344449        -9.3729
 210   2.0000      -0.329628        -8.9696
 211   2.0000      -0.325181        -8.8486
 212   2.0000      -0.319031        -8.6813
 213   2.0000      -0.317290        -8.6339
 214   2.0000      -0.306307        -8.3350
 215   2.0000      -0.305532        -8.3140
 216   2.0000      -0.304736        -8.2923
 217   2.0000      -0.301806        -8.2126
 218   2.0000      -0.300429        -8.1751
 219   2.0000      -0.298843        -8.1319
 220   2.0000      -0.289767        -7.8850
 221   2.0000      -0.259818        -7.0700
 222   2.0000      -0.232473        -6.3259
 223   0.0000      -0.064590        -1.7576
 224   0.0000      -0.045811        -1.2466
 225   0.0000      -0.034488        -0.9385
 226   0.0000       0.000311         0.0085
 227   0.0000       0.007549         0.2054

MULLIKEN ATOMIC CHARGES
-----------------------
   0 C :    0.044218
   1 C :    0.029835
   2 C :   -0.184423
   3 S :    0.133826
   4 C :   -0.067823
   5 C :    0.132897
   6 C :    0.113901
   7 C :    0.129535
   8 C :    0.134286
   9 C :   -0.006451
  10 C :   -0.088013
  11 N :   -0.108176
  12 C :    0.130524
  13 C :    0.005469
  14 N :   -0.000952
  15 F :   -0.178496
  16 F :   -0.173126
  17 O :   -0.278204
  18 C :    0.138914
  19 C :    0.020345
  20 C :   -0.013526
  21 C :    0.036954
  22 C :   -0.111640
  23 S :    0.136707
  24 C :   -0.111857
  25 C :    0.112839
  26 C :    0.119394
  27 C :    0.128277
  28 C :    0.135548
  29 C :   -0.007518
  30 C :   -0.085990
  31 N :   -0.110656
  32 C :    0.129897
  33 C :    0.004151
  34 N :    0.003856
  35 F :   -0.180460
  36 F :   -0.176754
  37 O :   -0.276532
  38 C :    0.140072
  39 C :    0.018619
  40 C :   -0.015687
  41 C :    0.047905
  42 C :   -0.111578
  43 S :    0.142016
  44 C :   -0.113707
  45 C :    0.098974
  46 C :    0.116040
  47 C :    0.282190
  48 C :   -0.124533
  49 C :    0.026401
  50 C :   -0.066591
  51 N :   -0.075338
  52 C :    0.121336
  53 C :    0.011740
  54 N :    0.000849
  55 F :   -0.179953
  56 F :   -0.182917
  57 O :   -0.287557
  58 C :    0.162723
  59 C :    0.012381
  60 H :   -0.014989
  61 H :   -0.006540
  62 H :    0.024004
  63 H :    0.006809
  64 H :    0.027511
  65 H :    0.036158
  66 H :    0.022340
  67 H :    0.024774
  68 H :    0.021990
  69 H :   -0.013726
  70 H :   -0.017864
  71 H :    0.007892
  72 H :    0.026847
  73 H :    0.036684
  74 H :    0.022563
  75 H :    0.025311
  76 H :    0.022950
  77 H :   -0.016497
  78 H :   -0.020226
  79 H :   -0.020488
  80 H :    0.005903
  81 H :    0.019610
  82 H :    0.020608
  83 H :    0.026628
  84 H :    0.020667
  85 H :    0.026924
Sum of atomic charges:   -0.0000000

LOEWDIN ATOMIC CHARGES
----------------------
   0 C :   -0.071761
   1 C :   -0.041734
   2 C :   -0.182483
   3 S :    0.445492
   4 C :   -0.186096
   5 C :   -0.049427
   6 C :    0.050741
   7 C :    0.076098
   8 C :   -0.068356
   9 C :    0.004189
  10 C :   -0.023308
  11 N :   -0.108900
  12 C :    0.053032
  13 C :   -0.001016
  14 N :   -0.012198
  15 F :   -0.054679
  16 F :   -0.042749
  17 O :   -0.072474
  18 C :    0.083784
  19 C :   -0.060478
  20 C :   -0.058371
  21 C :   -0.040193
  22 C :   -0.189666
  23 S :    0.493229
  24 C :   -0.172639
  25 C :   -0.048295
  26 C :    0.049034
  27 C :    0.074973
  28 C :   -0.069067
  29 C :    0.004146
  30 C :   -0.023337
  31 N :   -0.110276
  32 C :    0.053781
  33 C :   -0.001038
  34 N :   -0.010625
  35 F :   -0.056067
  36 F :   -0.046728
  37 O :   -0.071682
  38 C :    0.084204
  39 C :   -0.060567
  40 C :   -0.059452
  41 C :   -0.038335
  42 C :   -0.191126
  43 S :    0.494829
  44 C :   -0.172366
  45 C :   -0.042937
  46 C :    0.044408
  47 C :    0.070925
  48 C :   -0.056346
  49 C :    0.001222
  50 C :   -0.027237
  51 N :   -0.097977
  52 C :    0.047056
  53 C :   -0.003506
  54 N :   -0.015081
  55 F :   -0.057591
  56 F :   -0.057201
  57 O :   -0.081877
  58 C :    0.088634
  59 C :   -0.062574
  60 H :    0.027913
  61 H :    0.026296
  62 H :    0.022146
  63 H :    0.028541
  64 H :    0.014087
  65 H :    0.015202
  66 H :    0.027783
  67 H :    0.035128
  68 H :    0.028510
  69 H :    0.025298
  70 H :    0.024735
  71 H :    0.029025
  72 H :    0.014352
  73 H :    0.015210
  74 H :    0.027925
  75 H :    0.035299
  76 H :    0.028819
  77 H :    0.024592
  78 H :    0.024872
  79 H :    0.044239
  80 H :    0.028282
  81 H :    0.018637
  82 H :    0.018597
  83 H :    0.029689
  84 H :    0.033050
  85 H :    0.029810

  Mayer bond orders larger than 0.100000
B(  0-C ,  1-C ) :   1.2541 B(  0-C ,  4-C ) :   1.5453 B(  0-C , 60-H ) :   0.9953
B(  1-C ,  2-C ) :   1.5342 B(  1-C , 61-H ) :   0.9835 B(  2-C ,  3-S ) :   1.1326
B(  2-C ,  5-C ) :   1.1110 B(  3-S ,  4-C ) :   1.1726 B(  4-C , 62-H ) :   0.9734
B(  5-C ,  6-C ) :   1.3439 B(  5-C ,  8-C ) :   0.1222 B(  5-C , 10-C ) :   1.2196
B(  6-C ,  7-C ) :   1.2184 B(  6-C , 15-F ) :   1.1341 B(  7-C ,  8-C ) :   1.3329
B(  7-C , 16-F ) :   1.1369 B(  8-C ,  9-C ) :   1.2034 B(  8-C , 24-C ) :   1.1081
B(  9-C , 10-C ) :   1.2357 B(  9-C , 11-N ) :   1.4118 B( 10-C , 14-N ) :   1.4444
B( 11-N , 12-C ) :   1.5443 B( 12-C , 13-C ) :   1.1692 B( 12-C , 17-O ) :   1.2410
B( 13-C , 14-N ) :   1.7099 B( 13-C , 63-H ) :   0.9705 B( 17-O , 18-C ) :   0.8919
B( 18-C , 19-C ) :   1.1016 B( 18-C , 64-H ) :   0.9551 B( 18-C , 65-H ) :   0.9542
B( 19-C , 66-H ) :   0.9680 B( 19-C , 67-H ) :   0.9595 B( 19-C , 68-H ) :   0.9679
B( 20-C , 21-C ) :   1.2617 B( 20-C , 24-C ) :   1.4760 B( 20-C , 69-H ) :   0.9952
B( 21-C , 22-C ) :   1.4978 B( 21-C , 70-H ) :   0.9884 B( 22-C , 23-S ) :   1.0765
B( 22-C , 25-C ) :   1.1060 B( 23-S , 24-C ) :   1.1320 B( 25-C , 26-C ) :   1.3468
B( 25-C , 28-C ) :   0.1243 B( 25-C , 30-C ) :   1.2180 B( 26-C , 27-C ) :   1.2188
B( 26-C , 35-F ) :   1.1127 B( 27-C , 28-C ) :   1.3288 B( 27-C , 36-F ) :   1.1342
B( 28-C , 29-C ) :   1.2029 B( 28-C , 44-C ) :   1.1072 B( 29-C , 30-C ) :   1.2328
B( 29-C , 31-N ) :   1.4104 B( 30-C , 34-N ) :   1.4478 B( 31-N , 32-C ) :   1.5443
B( 32-C , 33-C ) :   1.1667 B( 32-C , 37-O ) :   1.2438 B( 33-C , 34-N ) :   1.7120
B( 33-C , 71-H ) :   0.9714 B( 37-O , 38-C ) :   0.8909 B( 38-C , 39-C ) :   1.1005
B( 38-C , 72-H ) :   0.9562 B( 38-C , 73-H ) :   0.9536 B( 39-C , 74-H ) :   0.9680
B( 39-C , 75-H ) :   0.9598 B( 39-C , 76-H ) :   0.9684 B( 40-C , 41-C ) :   1.2607
B( 40-C , 44-C ) :   1.4821 B( 40-C , 77-H ) :   0.9942 B( 41-C , 42-C ) :   1.5115
B( 41-C , 78-H ) :   0.9903 B( 42-C , 43-S ) :   1.0827 B( 42-C , 44-C ) :   0.1002
B( 42-C , 45-C ) :   1.0764 B( 43-S , 44-C ) :   1.1366 B( 45-C , 46-C ) :   1.3658
B( 45-C , 48-C ) :   0.1231 B( 45-C , 50-C ) :   1.2153 B( 46-C , 47-C ) :   1.2016
B( 46-C , 55-F ) :   1.1196 B( 47-C , 48-C ) :   1.3718 B( 47-C , 56-F ) :   1.1091
B( 48-C , 49-C ) :   1.2053 B( 48-C , 79-H ) :   1.0414 B( 49-C , 50-C ) :   1.2399
B( 49-C , 51-N ) :   1.3989 B( 50-C , 54-N ) :   1.4416 B( 51-N , 52-C ) :   1.5578
B( 52-C , 53-C ) :   1.1693 B( 52-C , 57-O ) :   1.2135 B( 53-C , 54-N ) :   1.7152
B( 53-C , 80-H ) :   0.9728 B( 57-O , 58-C ) :   0.9068 B( 58-C , 59-C ) :   1.0916
B( 58-C , 81-H ) :   0.9582 B( 58-C , 82-H ) :   0.9576 B( 59-C , 83-H ) :   0.9688
B( 59-C , 84-H ) :   0.9619 B( 59-C , 85-H ) :   0.9689

-----------------------------------------------------------------------------
         ABSORPTION SPECTRUM VIA TRANSITION ELECTRIC DIPOLE MOMENTS
-----------------------------------------------------------------------------
State   Energy  Wavelength   fosc         T2         TX        TY        TZ
        (cm-1)    (nm)                  (au**2)     (au)      (au)      (au)
-----------------------------------------------------------------------------
   0   20748.3    482.0   1.695479090  26.90208  -3.12067   3.74542  -1.77069
   1   24941.8    400.9   0.037084394   0.48948   0.53215   0.30441   0.33709
   2   27087.2    369.2   0.137351993   1.66935   0.60837  -1.00743   0.53323
   3   28558.8    350.2   0.027536035   0.31742  -0.47691  -0.16496  -0.25054
   4   31433.3    318.1   0.052110153   0.54577  -0.64671   0.28516  -0.21499
   5   31935.3    313.1   0.008262795   0.08518  -0.16188   0.09670  -0.22277
   6   32229.6    310.3   0.093170957   0.95170  -0.88975   0.20795  -0.34177
   7   32588.8    306.9   0.128421929   1.29732  -0.16782  -1.11900  -0.13035
   8   32838.3    304.5   0.008042984   0.08063  -0.07852   0.03089  -0.27113
   9   33546.7    298.1   0.456476706   4.47965   0.75895  -1.87906   0.61056
  10   33949.3    294.6   0.054580268   0.52927   0.50141  -0.23254   0.47306
  11   34438.4    290.4   0.145484065   1.39074   1.11427   0.38153   0.05992
  12   34712.6    288.1   0.010530672   0.09987   0.25452  -0.18662   0.01634
  13   35703.3    280.1   0.028879710   0.26629   0.00900   0.38567  -0.34274
  14   35963.0    278.1   0.101815854   0.93204  -0.75746   0.14090  -0.58175
  15   36542.1    273.7   0.179367775   1.61595   0.88140  -0.73017   0.55310
  16   37481.7    266.8   0.117780647   1.03450   0.52215   0.83981   0.23783
  17   38147.5    262.1   0.159503729   1.37651   0.16066  -1.16143  -0.04231
  18   38245.9    261.5   0.132317923   1.13896  -0.79770  -0.52648  -0.47482
  19   38512.3    259.7   0.117852474   1.00743  -0.97234  -0.18926  -0.16174
  20   38547.4    259.4   0.129425105   1.10535   0.66324  -0.80967  -0.09953
  21   39328.5    254.3   0.149482637   1.25129   0.42095   1.01567   0.20617
  22   39509.5    253.1   0.011793831   0.09827  -0.21001   0.21099  -0.09822

FINAL SINGLE POINT ENERGY     -3960.274758676976

DIPOLE MOMENT
-------------
                                X             Y             Z
Electronic contribution:     13.10815     -50.94341      12.26779
Nuclear contribution   :    -13.75573      53.08458     -12.77023
                        -----------------------------------------
Total Dipole Moment    :     -0.64758       2.14117      -0.50244
                        -----------------------------------------
Magnitude (a.u.)       :      2.29269
Magnitude (Debye)      :      5.82754

Rotational constants in cm-1:     0.003384     0.000372     0.000342
Rotational constants in MHz :   101.464238    11.157430    10.244331

                             ****ORCA TERMINATED NORMALLY****
TOTAL RUN TIME: 0 days 0 hours 6 minutes 24 seconds 774 msec
