                         Program Version 4.2.0 -  RELEASE  -
|  1> # ORCA input file
|  2> # SCF done       -145.791778698750          0.000311543568
|  3> ! CAM-B3LYP def2-SVP def2/J RIJCOSX Grid4 TightSCF
|  4> %maxcore 5000
|  5> %tddft
|  6>     Mode sTDDFT
|  7>     Ethresh 5.0
|  8>     maxcore 5000
|  9> end
| 10>
| 11> %pal
| 12>   nprocs 6
| 13>   end
| 14> * xyz 0 1
| 15>    C       -5.93012         1.40823        -4.59789
| 16>    C       -4.99844         2.00834        -3.73183
| 17>    C       -5.14493         3.36786        -3.62624
| 18>    S       -6.47212         3.90667        -4.63146
| 19>    C       -6.78733         2.30499        -5.15338
| 20>    C       -4.39022         4.32827        -2.86040
| 21>    C       -4.62236         5.68695        -3.01859
| 22>    C       -3.90163         6.64671        -2.32747
| 23>    C       -2.89474         6.31545        -1.43286
| 24>    C       -2.65220         4.93101        -1.20681
| 25>    C       -3.39236         3.94470        -1.91772
| 26>    N       -1.73795         4.55788        -0.28486
| 27>    C       -1.54879         3.28169        -0.06742
| 28>    C       -2.26971         2.29789        -0.79733
| 29>    N       -3.15519         2.63438        -1.68210
| 30>    O       -0.67906         2.86752         0.85439
| 31>    C        0.01263         3.87609         1.58539
| 32>    C        0.74750         3.20928         2.73386
| 33>    C       -0.90912         7.27766        -0.16021
| 34>    C       -0.46376         8.49699         0.35639
| 35>    C       -1.34651         9.53446         0.16800
| 36>    S       -2.76214         8.96995        -0.68046
| 37>    C       -2.14080         7.34573        -0.76631
| 38>    C       -1.25151        10.91253         0.56965
| 39>    C       -2.37671        11.72508         0.56433
| 40>    C       -2.33114        13.04642         0.97252
| 41>    C       -1.16026        13.65427         1.40602
| 42>    C        0.02835        12.86904         1.38225
| 43>    C       -0.02090        11.50589         0.97497
| 44>    N        1.21108        13.42919         1.71969
| 45>    C        2.29350        12.69591         1.66291
| 46>    C        2.23750        11.32997         1.27433
| 47>    N        1.11471        10.77297         0.94378
| 48>    O        3.48700        13.21198         1.95849
| 49>    C        3.52417        14.58906         2.32117
| 50>    C        4.97784        15.01905         2.39741
| 51>    C       -0.22765        15.74634         2.52912
| 52>    C       -0.60275        17.06494         2.80160
| 53>    C       -1.85384        17.39292         2.33736
| 54>    S       -2.57780        16.01844         1.54630
| 55>    C       -1.17717        15.02519         1.84525
| 56>    C       -2.58294        18.63251         2.44107
| 57>    C       -3.93416        18.67407         2.13406
| 58>    C       -4.68345        19.84537         2.23166
| 59>    C       -4.10305        21.01802         2.63962
| 60>    C       -2.73411        21.03400         2.95208
| 61>    C       -1.95888        19.84601         2.85458
| 62>    N       -2.17054        22.20213         3.34318
| 63>    C       -0.89173        22.20024         3.61663
| 64>    C       -0.11104        21.01417         3.50268
| 65>    N       -0.63624        19.88633         3.13596
| 66>    O       -0.27725        23.31738         4.00647
| 67>    C       -1.09088        24.48331         4.10155
| 68>    C       -0.21020        25.64094         4.53470
| 69>    H       -5.96178         0.35223        -4.79990
| 70>    H       -4.24024         1.47041        -3.19625
| 71>    H       -7.58948         2.12611        -5.84188
| 72>    H       -5.38269         6.00985        -3.71484
| 73>    H       -4.11809         7.69068        -2.50294
| 74>    H       -2.09983         1.24511        -0.62273
| 75>    H       -0.70967         4.61667         1.94701
| 76>    H        0.71582         4.38236         0.91316
| 77>    H        0.04064         2.70730         3.38884
| 78>    H        1.29101         3.95749         3.30335
| 79>    H        1.44887         2.47268         2.35149
| 80>    H       -0.34787         6.36500        -0.11031
| 81>    H        0.47666         8.63130         0.85597
| 82>    H       -3.32105        11.30710         0.24733
| 83>    H       -3.24342        13.62537         0.96578
| 84>    H        3.13459        10.72871         1.23741
| 85>    H        3.02821        14.71419         3.29149
| 86>    H        2.97334        15.17224         1.57434
| 87>    H        5.50833        14.41526         3.12876
| 88>    H        5.03507        16.06381         2.68834
| 89>    H        5.45682        14.89196         1.43039
| 90>    H        0.70805        15.31624         2.82773
| 91>    H        0.01421        17.77013         3.32547
| 92>    H       -4.42264        17.76461         1.81526
| 93>    H       -5.73442        19.81803         1.98463
| 94>    H       -4.66139        21.93611         2.72841
| 95>    H        0.94762        21.03361         3.71938
| 96>    H       -1.89374        24.29905         4.82473
| 97>    H       -1.55323        24.67523         3.12649
| 98>    H        0.24475        25.42479         5.49760
| 99>    H       -0.80737        26.54428         4.61765
|100>    H        0.58028        25.80202         3.80665
|101> *
|102>
|103>                          ****END OF INPUT****

CARTESIAN COORDINATES (ANGSTROEM)
---------------------------------
  C     -5.930120    1.408230   -4.597890
  C     -4.998440    2.008340   -3.731830
  C     -5.144930    3.367860   -3.626240
  S     -6.472120    3.906670   -4.631460
  C     -6.787330    2.304990   -5.153380
  C     -4.390220    4.328270   -2.860400
  C     -4.622360    5.686950   -3.018590
  C     -3.901630    6.646710   -2.327470
  C     -2.894740    6.315450   -1.432860
  C     -2.652200    4.931010   -1.206810
  C     -3.392360    3.944700   -1.917720
  N     -1.737950    4.557880   -0.284860
  C     -1.548790    3.281690   -0.067420
  C     -2.269710    2.297890   -0.797330
  N     -3.155190    2.634380   -1.682100
  O     -0.679060    2.867520    0.854390
  C      0.012630    3.876090    1.585390
  C      0.747500    3.209280    2.733860
  C     -0.909120    7.277660   -0.160210
  C     -0.463760    8.496990    0.356390
  C     -1.346510    9.534460    0.168000
  S     -2.762140    8.969950   -0.680460
  C     -2.140800    7.345730   -0.766310
  C     -1.251510   10.912530    0.569650
  C     -2.376710   11.725080    0.564330
  C     -2.331140   13.046420    0.972520
  C     -1.160260   13.654270    1.406020
  C      0.028350   12.869040    1.382250
  C     -0.020900   11.505890    0.974970
  N      1.211080   13.429190    1.719690
  C      2.293500   12.695910    1.662910
  C      2.237500   11.329970    1.274330
  N      1.114710   10.772970    0.943780
  O      3.487000   13.211980    1.958490
  C      3.524170   14.589060    2.321170
  C      4.977840   15.019050    2.397410
  C     -0.227650   15.746340    2.529120
  C     -0.602750   17.064940    2.801600
  C     -1.853840   17.392920    2.337360
  S     -2.577800   16.018440    1.546300
  C     -1.177170   15.025190    1.845250
  C     -2.582940   18.632510    2.441070
  C     -3.934160   18.674070    2.134060
  C     -4.683450   19.845370    2.231660
  C     -4.103050   21.018020    2.639620
  C     -2.734110   21.034000    2.952080
  C     -1.958880   19.846010    2.854580
  N     -2.170540   22.202130    3.343180
  C     -0.891730   22.200240    3.616630
  C     -0.111040   21.014170    3.502680
  N     -0.636240   19.886330    3.135960
  O     -0.277250   23.317380    4.006470
  C     -1.090880   24.483310    4.101550
  C     -0.210200   25.640940    4.534700
  H     -5.961780    0.352230   -4.799900
  H     -4.240240    1.470410   -3.196250
  H     -7.589480    2.126110   -5.841880
  H     -5.382690    6.009850   -3.714840
  H     -4.118090    7.690680   -2.502940
  H     -2.099830    1.245110   -0.622730
  H     -0.709670    4.616670    1.947010
  H      0.715820    4.382360    0.913160
  H      0.040640    2.707300    3.388840
  H      1.291010    3.957490    3.303350
  H      1.448870    2.472680    2.351490
  H     -0.347870    6.365000   -0.110310
  H      0.476660    8.631300    0.855970
  H     -3.321050   11.307100    0.247330
  H     -3.243420   13.625370    0.965780
  H      3.134590   10.728710    1.237410
  H      3.028210   14.714190    3.291490
  H      2.973340   15.172240    1.574340
  H      5.508330   14.415260    3.128760
  H      5.035070   16.063810    2.688340
  H      5.456820   14.891960    1.430390
  H      0.708050   15.316240    2.827730
  H      0.014210   17.770130    3.325470
  H     -4.422640   17.764610    1.815260
  H     -5.734420   19.818030    1.984630
  H     -4.661390   21.936110    2.728410
  H      0.947620   21.033610    3.719380
  H     -1.893740   24.299050    4.824730
  H     -1.553230   24.675230    3.126490
  H      0.244750   25.424790    5.497600
  H     -0.807370   26.544280    4.617650
  H      0.580280   25.802020    3.806650

 Total Charge           Charge          ....    0
 Multiplicity           Mult            ....    1
 Number of Electrons    NEL             ....  398
 Basis Dimension        Dim             ....  928

ORBITAL ENERGIES
----------------

  NO   OCC          E(Eh)            E(eV)
   0   2.0000     -88.937661     -2420.1168
   1   2.0000     -88.936874     -2420.0954
   2   2.0000     -88.936565     -2420.0870
   3   2.0000     -19.254846      -523.9510
   4   2.0000     -19.253803      -523.9226
   5   2.0000     -19.251969      -523.8727
   6   2.0000     -14.418455      -392.3461
   7   2.0000     -14.418157      -392.3380
   8   2.0000     -14.417749      -392.3269
   9   2.0000     -14.408781      -392.0829
  10   2.0000     -14.407814      -392.0566
  11   2.0000     -14.406585      -392.0231
  12   2.0000     -10.369961      -282.1810
  13   2.0000     -10.369098      -282.1575
  14   2.0000     -10.366692      -282.0920
  15   2.0000     -10.321148      -280.8527
  16   2.0000     -10.319773      -280.8153
  17   2.0000     -10.317653      -280.7576
  18   2.0000     -10.312569      -280.6193
  19   2.0000     -10.312402      -280.6147
  20   2.0000     -10.312288      -280.6116
  21   2.0000     -10.311560      -280.5918
  22   2.0000     -10.311364      -280.5865
  23   2.0000     -10.306560      -280.4557
  24   2.0000     -10.303999      -280.3861
  25   2.0000     -10.303560      -280.3741
  26   2.0000     -10.302001      -280.3317
  27   2.0000     -10.285601      -279.8854
  28   2.0000     -10.285173      -279.8738
  29   2.0000     -10.284142      -279.8457
  30   2.0000     -10.284025      -279.8426
  31   2.0000     -10.283822      -279.8370
  32   2.0000     -10.283245      -279.8213
  33   2.0000     -10.283039      -279.8157
  34   2.0000     -10.282955      -279.8134
  35   2.0000     -10.280123      -279.7364
  36   2.0000     -10.279192      -279.7110
  37   2.0000     -10.278214      -279.6844
  38   2.0000     -10.271825      -279.5106
  39   2.0000     -10.271776      -279.5092
  40   2.0000     -10.271288      -279.4959
  41   2.0000     -10.268067      -279.4083
  42   2.0000     -10.267643      -279.3968
  43   2.0000     -10.267148      -279.3833
  44   2.0000     -10.263053      -279.2719
  45   2.0000     -10.261040      -279.2171
  46   2.0000     -10.260078      -279.1909
  47   2.0000     -10.259486      -279.1748
  48   2.0000     -10.254687      -279.0442
  49   2.0000     -10.249065      -278.8912
  50   2.0000     -10.248729      -278.8821
  51   2.0000     -10.248687      -278.8810
  52   2.0000     -10.248402      -278.8732
  53   2.0000     -10.248085      -278.8646
  54   2.0000      -8.033533      -218.6035
  55   2.0000      -8.032408      -218.5729
  56   2.0000      -8.032030      -218.5627
  57   2.0000      -6.002804      -163.3446
  58   2.0000      -6.001670      -163.3137
  59   2.0000      -6.001302      -163.3037
  60   2.0000      -5.998532      -163.2283
  61   2.0000      -5.997645      -163.2042
  62   2.0000      -5.997267      -163.1939
  63   2.0000      -5.995871      -163.1559
  64   2.0000      -5.994537      -163.1196
  65   2.0000      -5.994167      -163.1096
  66   2.0000      -1.171454       -31.8769
  67   2.0000      -1.170561       -31.8526
  68   2.0000      -1.169057       -31.8117
  69   2.0000      -1.066602       -29.0237
  70   2.0000      -1.066064       -29.0091
  71   2.0000      -1.063750       -28.9461
  72   2.0000      -0.994723       -27.0678
  73   2.0000      -0.993757       -27.0415
  74   2.0000      -0.990784       -26.9606
  75   2.0000      -0.971785       -26.4436
  76   2.0000      -0.967985       -26.3402
  77   2.0000      -0.963812       -26.2267
  78   2.0000      -0.944223       -25.6936
  79   2.0000      -0.936291       -25.4778
  80   2.0000      -0.929453       -25.2917
  81   2.0000      -0.878504       -23.9053
  82   2.0000      -0.870045       -23.6751
  83   2.0000      -0.869241       -23.6532
  84   2.0000      -0.866999       -23.5923
  85   2.0000      -0.862233       -23.4625
  86   2.0000      -0.846201       -23.0263
  87   2.0000      -0.831300       -22.6208
  88   2.0000      -0.829898       -22.5827
  89   2.0000      -0.827622       -22.5207
  90   2.0000      -0.810214       -22.0470
  91   2.0000      -0.808008       -21.9870
  92   2.0000      -0.805278       -21.9127
  93   2.0000      -0.803050       -21.8521
  94   2.0000      -0.784582       -21.3495
  95   2.0000      -0.765468       -20.8294
  96   2.0000      -0.759841       -20.6763
  97   2.0000      -0.759155       -20.6577
  98   2.0000      -0.756925       -20.5970
  99   2.0000      -0.734983       -19.9999
 100   2.0000      -0.731080       -19.8937
 101   2.0000      -0.727411       -19.7939
 102   2.0000      -0.717328       -19.5195
 103   2.0000      -0.699054       -19.0222
 104   2.0000      -0.694344       -18.8941
 105   2.0000      -0.690793       -18.7974
 106   2.0000      -0.687072       -18.6962
 107   2.0000      -0.673472       -18.3261
 108   2.0000      -0.648053       -17.6344
 109   2.0000      -0.643971       -17.5234
 110   2.0000      -0.642428       -17.4813
 111   2.0000      -0.639493       -17.4015
 112   2.0000      -0.631251       -17.1772
 113   2.0000      -0.627142       -17.0654
 114   2.0000      -0.625780       -17.0283
 115   2.0000      -0.624684       -16.9985
 116   2.0000      -0.613346       -16.6900
 117   2.0000      -0.608511       -16.5584
 118   2.0000      -0.606388       -16.5007
 119   2.0000      -0.602506       -16.3950
 120   2.0000      -0.595365       -16.2007
 121   2.0000      -0.585867       -15.9422
 122   2.0000      -0.581314       -15.8184
 123   2.0000      -0.578297       -15.7363
 124   2.0000      -0.575898       -15.6710
 125   2.0000      -0.574644       -15.6369
 126   2.0000      -0.573471       -15.6049
 127   2.0000      -0.569848       -15.5063
 128   2.0000      -0.566210       -15.4074
 129   2.0000      -0.550660       -14.9842
 130   2.0000      -0.546653       -14.8752
 131   2.0000      -0.542614       -14.7653
 132   2.0000      -0.540514       -14.7081
 133   2.0000      -0.525677       -14.3044
 134   2.0000      -0.523734       -14.2515
 135   2.0000      -0.521588       -14.1931
 136   2.0000      -0.520089       -14.1523
 137   2.0000      -0.518111       -14.0985
 138   2.0000      -0.514904       -14.0112
 139   2.0000      -0.512508       -13.9461
 140   2.0000      -0.504895       -13.7389
 141   2.0000      -0.488192       -13.2844
 142   2.0000      -0.487249       -13.2587
 143   2.0000      -0.485088       -13.1999
 144   2.0000      -0.484165       -13.1748
 145   2.0000      -0.480380       -13.0718
 146   2.0000      -0.477809       -13.0018
 147   2.0000      -0.475813       -12.9475
 148   2.0000      -0.473198       -12.8764
 149   2.0000      -0.472693       -12.8626
 150   2.0000      -0.468998       -12.7621
 151   2.0000      -0.467923       -12.7328
 152   2.0000      -0.466723       -12.7002
 153   2.0000      -0.463612       -12.6155
 154   2.0000      -0.462726       -12.5914
 155   2.0000      -0.456697       -12.4274
 156   2.0000      -0.453779       -12.3479
 157   2.0000      -0.453207       -12.3324
 158   2.0000      -0.451755       -12.2929
 159   2.0000      -0.449995       -12.2450
 160   2.0000      -0.445083       -12.1113
 161   2.0000      -0.441973       -12.0267
 162   2.0000      -0.440108       -11.9759
 163   2.0000      -0.435442       -11.8490
 164   2.0000      -0.434049       -11.8111
 165   2.0000      -0.431837       -11.7509
 166   2.0000      -0.429557       -11.6888
 167   2.0000      -0.426459       -11.6046
 168   2.0000      -0.421656       -11.4739
 169   2.0000      -0.419813       -11.4237
 170   2.0000      -0.419595       -11.4178
 171   2.0000      -0.418759       -11.3950
 172   2.0000      -0.415942       -11.3184
 173   2.0000      -0.412235       -11.2175
 174   2.0000      -0.410416       -11.1680
 175   2.0000      -0.397626       -10.8200
 176   2.0000      -0.394267       -10.7286
 177   2.0000      -0.391056       -10.6412
 178   2.0000      -0.385733       -10.4963
 179   2.0000      -0.384336       -10.4583
 180   2.0000      -0.382098       -10.3974
 181   2.0000      -0.373797       -10.1715
 182   2.0000      -0.370731       -10.0881
 183   2.0000      -0.369313       -10.0495
 184   2.0000      -0.352183        -9.5834
 185   2.0000      -0.336949        -9.1688
 186   2.0000      -0.317928        -8.6513
 187   2.0000      -0.317526        -8.6403
 188   2.0000      -0.317256        -8.6330
 189   2.0000      -0.314054        -8.5459
 190   2.0000      -0.305613        -8.3162
 191   2.0000      -0.304493        -8.2857
 192   2.0000      -0.303967        -8.2714
 193   2.0000      -0.298297        -8.1171
 194   2.0000      -0.298196        -8.1143
 195   2.0000      -0.295681        -8.0459
 196   2.0000      -0.280806        -7.6411
 197   2.0000      -0.250144        -6.8068
 198   2.0000      -0.224331        -6.1044
 199   0.0000      -0.055251        -1.5034
 200   0.0000      -0.038340        -1.0433
 201   0.0000      -0.027530        -0.7491
 202   0.0000       0.006467         0.1760
 203   0.0000       0.013658         0.3716

MULLIKEN ATOMIC CHARGES
-----------------------
   0 C :    0.048975
   1 C :    0.011626
   2 C :   -0.156149
   3 S :    0.080110
   4 C :   -0.060548
   5 C :    0.195814
   6 C :   -0.075977
   7 C :   -0.050528
   8 C :    0.137977
   9 C :   -0.023277
  10 C :   -0.079980
  11 N :   -0.067452
  12 C :    0.126733
  13 C :    0.007850
  14 N :   -0.002315
  15 O :   -0.291827
  16 C :    0.144298
  17 C :    0.015086
  18 C :    0.028595
  19 C :    0.020850
  20 C :   -0.106390
  21 S :    0.070583
  22 C :   -0.093409
  23 C :    0.171939
  24 C :   -0.067372
  25 C :   -0.056145
  26 C :    0.156567
  27 C :   -0.021365
  28 C :   -0.080955
  29 N :   -0.069610
  30 C :    0.126502
  31 C :    0.005119
  32 N :   -0.000724
  33 O :   -0.291553
  34 C :    0.138789
  35 C :    0.019784
  36 C :    0.024357
  37 C :    0.021914
  38 C :   -0.106748
  39 S :    0.061601
  40 C :   -0.090193
  41 C :    0.174433
  42 C :   -0.071947
  43 C :    0.051201
  44 C :   -0.021155
  45 C :    0.011749
  46 C :   -0.069233
  47 N :   -0.070317
  48 C :    0.118819
  49 C :    0.012207
  50 N :   -0.002179
  51 O :   -0.294087
  52 C :    0.167792
  53 C :    0.012179
  54 H :   -0.015872
  55 H :   -0.007071
  56 H :    0.022821
  57 H :   -0.010288
  58 H :   -0.012799
  59 H :    0.003189
  60 H :    0.033215
  61 H :    0.029506
  62 H :    0.025488
  63 H :    0.020571
  64 H :    0.024297
  65 H :   -0.037149
  66 H :   -0.018425
  67 H :   -0.013968
  68 H :   -0.011763
  69 H :    0.002721
  70 H :    0.032724
  71 H :    0.034378
  72 H :    0.023995
  73 H :    0.020255
  74 H :    0.024936
  75 H :   -0.042834
  76 H :   -0.017143
  77 H :   -0.012202
  78 H :   -0.011319
  79 H :   -0.033243
  80 H :    0.000735
  81 H :    0.018287
  82 H :    0.017454
  83 H :    0.023785
  84 H :    0.018763
  85 H :    0.024945
Sum of atomic charges:   -0.0000000

LOEWDIN ATOMIC CHARGES
----------------------
   0 C :   -0.069330
   1 C :   -0.049041
   2 C :   -0.169724
   3 S :    0.421999
   4 C :   -0.183470
   5 C :   -0.025485
   6 C :   -0.031894
   7 C :   -0.013992
   8 C :   -0.046246
   9 C :    0.011247
  10 C :   -0.020547
  11 N :   -0.084615
  12 C :    0.047473
  13 C :   -0.002802
  14 N :   -0.015110
  15 O :   -0.085873
  16 C :    0.086991
  17 C :   -0.061918
  18 C :   -0.054186
  19 C :   -0.047247
  20 C :   -0.164883
  21 S :    0.422918
  22 C :   -0.159004
  23 C :   -0.028172
  24 C :   -0.031386
  25 C :   -0.014677
  26 C :   -0.045250
  27 C :    0.011291
  28 C :   -0.020460
  29 N :   -0.085521
  30 C :    0.048028
  31 C :   -0.004322
  32 N :   -0.015156
  33 O :   -0.085638
  34 C :    0.086552
  35 C :   -0.061448
  36 C :   -0.055893
  37 C :   -0.047551
  38 C :   -0.165104
  39 S :    0.421828
  40 C :   -0.158012
  41 C :   -0.023385
  42 C :   -0.035885
  43 C :   -0.010313
  44 C :   -0.032213
  45 C :    0.001496
  46 C :   -0.024251
  47 N :   -0.094401
  48 C :    0.044371
  49 C :   -0.004873
  50 N :   -0.018537
  51 O :   -0.087920
  52 C :    0.087494
  53 C :   -0.063063
  54 H :    0.027650
  55 H :    0.025894
  56 H :    0.021444
  57 H :    0.021478
  58 H :    0.023605
  59 H :    0.026917
  60 H :    0.021001
  61 H :    0.017567
  62 H :    0.029545
  63 H :    0.032808
  64 H :    0.028953
  65 H :    0.022952
  66 H :    0.024871
  67 H :    0.021966
  68 H :    0.022351
  69 H :    0.026652
  70 H :    0.017876
  71 H :    0.021073
  72 H :    0.029021
  73 H :    0.032882
  74 H :    0.029539
  75 H :    0.022841
  76 H :    0.024883
  77 H :    0.019784
  78 H :    0.031581
  79 H :    0.030868
  80 H :    0.025985
  81 H :    0.017848
  82 H :    0.017635
  83 H :    0.028694
  84 H :    0.032045
  85 H :    0.028904

  Mayer bond orders larger than 0.100000
B(  0-C ,  1-C ) :   1.2264 B(  0-C ,  4-C ) :   1.5663 B(  0-C , 54-H ) :   0.9940
B(  1-C ,  2-C ) :   1.5607 B(  1-C , 55-H ) :   0.9802 B(  2-C ,  3-S ) :   1.1230
B(  2-C ,  5-C ) :   1.1001 B(  3-S ,  4-C ) :   1.1622 B(  4-C , 56-H ) :   0.9744
B(  5-C ,  6-C ) :   1.3879 B(  5-C ,  8-C ) :   0.1148 B(  5-C , 10-C ) :   1.2363
B(  6-C ,  7-C ) :   1.3016 B(  6-C , 57-H ) :   0.9877 B(  7-C ,  8-C ) :   1.3976
B(  7-C , 58-H ) :   0.9876 B(  8-C ,  9-C ) :   1.2425 B(  8-C , 22-C ) :   1.0690
B(  9-C , 10-C ) :   1.2496 B(  9-C , 11-N ) :   1.4416 B( 10-C , 14-N ) :   1.4278
B( 11-N , 12-C ) :   1.5606 B( 12-C , 13-C ) :   1.1722 B( 12-C , 15-O ) :   1.2025
B( 13-C , 14-N ) :   1.7111 B( 13-C , 59-H ) :   0.9707 B( 15-O , 16-C ) :   0.9118
B( 16-C , 17-C ) :   1.0944 B( 16-C , 60-H ) :   0.9542 B( 16-C , 61-H ) :   0.9568
B( 17-C , 62-H ) :   0.9696 B( 17-C , 63-H ) :   0.9625 B( 17-C , 64-H ) :   0.9668
B( 18-C , 19-C ) :   1.2057 B( 18-C , 22-C ) :   1.5348 B( 18-C , 65-H ) :   0.9915
B( 19-C , 20-C ) :   1.5336 B( 19-C , 66-H ) :   0.9861 B( 20-C , 21-S ) :   1.1081
B( 20-C , 22-C ) :   0.1082 B( 20-C , 23-C ) :   1.0856 B( 21-S , 22-C ) :   1.1157
B( 23-C , 24-C ) :   1.3872 B( 23-C , 26-C ) :   0.1166 B( 23-C , 28-C ) :   1.2413
B( 24-C , 25-C ) :   1.3046 B( 24-C , 67-H ) :   0.9877 B( 25-C , 26-C ) :   1.3837
B( 25-C , 68-H ) :   0.9867 B( 26-C , 27-C ) :   1.2371 B( 26-C , 40-C ) :   1.0859
B( 27-C , 28-C ) :   1.2462 B( 27-C , 29-N ) :   1.4387 B( 28-C , 32-N ) :   1.4299
B( 29-N , 30-C ) :   1.5627 B( 30-C , 31-C ) :   1.1718 B( 30-C , 33-O ) :   1.2002
B( 31-C , 32-N ) :   1.7119 B( 31-C , 69-H ) :   0.9711 B( 33-O , 34-C ) :   0.9142
B( 34-C , 35-C ) :   1.0943 B( 34-C , 70-H ) :   0.9552 B( 34-C , 71-H ) :   0.9542
B( 35-C , 72-H ) :   0.9664 B( 35-C , 73-H ) :   0.9623 B( 35-C , 74-H ) :   0.9686
B( 36-C , 37-C ) :   1.1973 B( 36-C , 40-C ) :   1.5355 B( 36-C , 75-H ) :   0.9897
B( 37-C , 38-C ) :   1.5434 B( 37-C , 76-H ) :   0.9839 B( 38-C , 39-S ) :   1.1066
B( 38-C , 40-C ) :   0.1076 B( 38-C , 41-C ) :   1.0756 B( 39-S , 40-C ) :   1.1128
B( 41-C , 42-C ) :   1.4323 B( 41-C , 44-C ) :   0.1048 B( 41-C , 46-C ) :   1.2304
B( 42-C , 43-C ) :   1.2757 B( 42-C , 77-H ) :   0.9876 B( 43-C , 44-C ) :   1.4161
B( 43-C , 78-H ) :   0.9863 B( 44-C , 45-C ) :   1.2713 B( 44-C , 79-H ) :   1.0101
B( 45-C , 46-C ) :   1.2504 B( 45-C , 47-N ) :   1.3893 B( 46-C , 50-N ) :   1.4215
B( 47-N , 48-C ) :   1.5695 B( 48-C , 49-C ) :   1.1711 B( 48-C , 51-O ) :   1.2023
B( 49-C , 50-N ) :   1.7162 B( 49-C , 80-H ) :   0.9706 B( 51-O , 52-C ) :   0.9114
B( 52-C , 53-C ) :   1.0905 B( 52-C , 81-H ) :   0.9579 B( 52-C , 82-H ) :   0.9574
B( 53-C , 83-H ) :   0.9689 B( 53-C , 84-H ) :   0.9625 B( 53-C , 85-H ) :   0.9690

-----------------------------------------------------------------------------
         ABSORPTION SPECTRUM VIA TRANSITION ELECTRIC DIPOLE MOMENTS
-----------------------------------------------------------------------------
State   Energy  Wavelength   fosc         T2         TX        TY        TZ
        (cm-1)    (nm)                  (au**2)     (au)      (au)      (au)
-----------------------------------------------------------------------------
   0   21028.1    475.6   1.527183728  23.90934  -0.74375  -4.53520  -1.66977
   1   24919.4    401.3   0.165902847   2.19175  -1.32560   0.26161  -0.60506
   2   26831.3    372.7   0.162090196   1.98880  -0.70133   1.21373   0.15427
   3   28519.3    350.6   0.055018288   0.63510  -0.76133   0.00857  -0.23538
   4   31250.8    320.0   0.106939552   1.12656  -0.20303  -1.04087  -0.04391
   5   32353.0    309.1   0.091381396   0.92986   0.19675   0.73778   0.58892
   6   32590.7    306.8   0.046435977   0.46907  -0.24075  -0.50747  -0.39190
   7   32947.7    303.5   0.016704573   0.16691  -0.01797  -0.11846  -0.39058
   8   33447.1    299.0   0.061190878   0.60229  -0.47271  -0.35810  -0.50060
   9   33556.3    298.0   0.283158286   2.77799   0.26199  -1.60035  -0.38501
  10   34171.9    292.6   0.003635392   0.03502   0.09672   0.09253  -0.13079
  11   34561.1    289.3   0.037428399   0.35652   0.09308   0.52794   0.26294
  12   35935.0    278.3   0.172176741   1.57737  -0.97730  -0.69459  -0.37389
  13   36536.3    273.7   0.224300499   2.02107   0.18681  -1.38473  -0.26208
  14   36736.5    272.2   0.009073490   0.08131   0.04993   0.27409  -0.06076
  15   37490.0    266.7   0.190256934   1.67071  -1.12434   0.61339  -0.17415
  16   37667.7    265.5   0.027243158   0.23810  -0.31987  -0.35705  -0.09111
  17   38361.3    260.7   0.080080751   0.68724   0.22911  -0.44881   0.65827
  18   38688.5    258.5   0.495184558   4.21367   1.91570   0.08108   0.73293
  19   39086.0    255.8   0.059341980   0.49982   0.68868  -0.14486   0.06754
  20   39864.3    250.9   0.252301542   2.08359   0.92335  -0.69264   0.86675

FINAL SINGLE POINT ENERGY     -3365.452000540160

DIPOLE MOMENT
-------------
                                X             Y             Z
Electronic contribution:    -28.03236     -28.65601     -23.34540
Nuclear contribution   :     28.91373      29.64338      24.19779
                        -----------------------------------------
Total Dipole Moment    :      0.88138       0.98737       0.85239
                        -----------------------------------------
Magnitude (a.u.)       :      1.57426
Magnitude (Debye)      :      4.00144

Rotational constants in cm-1:     0.003074     0.000403     0.000364
Rotational constants in MHz :    92.144660    12.085136    10.918904

                             ****ORCA TERMINATED NORMALLY****
TOTAL RUN TIME: 0 days 0 hours 5 minutes 31 seconds 329 msec
