                         Program Version 4.2.0 -  RELEASE  -
|  1> # ORCA input file
|  2> # SCF done       -171.132558967176          0.000551268594
|  3> ! CAM-B3LYP def2-SVP def2/J RIJCOSX Grid4 TightSCF
|  4> %maxcore 5000
|  5> %tddft
|  6>     Mode sTDDFT
|  7>     Ethresh 5.0
|  8>     maxcore 5000
|  9> end
| 10>
| 11> %pal
| 12>   nprocs 6
| 13>   end
| 14> * xyz 0 1
| 15>    C        3.21658        -4.04515        -6.20520
| 16>    C        2.34795        -5.01822        -5.65203
| 17>    C        1.88953        -4.68449        -4.40356
| 18>    S        2.54348        -3.14805        -3.92603
| 19>    C        3.42277        -2.98006        -5.38675
| 20>    C        0.97893        -5.40732        -3.54078
| 21>    C        0.03100        -4.74468        -2.78222
| 22>    C       -0.89079        -5.43248        -2.00278
| 23>    C       -0.91069        -6.82002        -1.94942
| 24>    C        0.08419        -7.52466        -2.68043
| 25>    C        1.03985        -6.82079        -3.45430
| 26>    N        0.10470        -8.87203        -2.63196
| 27>    C        1.04458        -9.50310        -3.29412
| 28>    C        2.05996        -8.77939        -3.99297
| 29>    N        2.04553        -7.48848        -4.06503
| 30>    O        1.10260       -10.82563        -3.32820
| 31>    C        0.07481       -11.53988        -2.64429
| 32>    C        0.36856       -13.02388        -2.76352
| 33>    F        3.77119        -4.16487        -7.41631
| 34>    F        1.96352        -6.09733        -6.33793
| 35>    C       -3.03307        -7.09151        -0.58323
| 36>    C       -3.79100        -8.09107         0.04117
| 37>    C       -3.23437        -9.34735        -0.05136
| 38>    S       -1.75074        -9.27145        -0.95232
| 39>    C       -1.89169        -7.55966        -1.20091
| 40>    C       -3.76607       -10.58847         0.44769
| 41>    C       -5.11404       -10.75609         0.72959
| 42>    C       -5.61838       -11.95788         1.20936
| 43>    C       -4.80288       -13.05537         1.44648
| 44>    C       -3.41447       -12.91544         1.17857
| 45>    C       -2.90244       -11.69539         0.66902
| 46>    N       -2.59525       -13.96361         1.39485
| 47>    C       -1.31824       -13.81710         1.13876
| 48>    C       -0.80403       -12.57881         0.65389
| 49>    N       -1.58155       -11.56698         0.42246
| 50>    O       -0.46089       -14.81530         1.31205
| 51>    C       -1.00201       -16.05179         1.77744
| 52>    C        0.14537       -17.01698         2.01096
| 53>    F       -3.42981        -5.80811        -0.57967
| 54>    F       -4.93173        -7.80798         0.69099
| 55>    C       -6.61322       -14.74321         1.99810
| 56>    C       -6.76581       -16.00119         2.59837
| 57>    C       -5.58774       -16.54349         3.06332
| 58>    S       -4.26781       -15.47436         2.70343
| 59>    C       -5.30883       -14.30305         1.95561
| 60>    C       -5.38915       -17.79897         3.74437
| 61>    C       -6.35645       -18.78937         3.79141
| 62>    C       -6.14338       -19.98123         4.48852
| 63>    C       -4.97423       -20.21514         5.16468
| 64>    C       -3.96409       -19.23887         5.14627
| 65>    C       -4.16049       -18.03572         4.41993
| 66>    N       -2.81312       -19.45317         5.82454
| 67>    C       -1.90051       -18.51595         5.78497
| 68>    C       -2.09094       -17.31702         5.03614
| 69>    N       -3.18874       -17.10080         4.37909
| 70>    O       -0.75638       -18.65277         6.45084
| 71>    C       -0.61101       -19.84355         7.22253
| 72>    C        0.69358       -19.75198         7.99229
| 73>    F       -7.66302       -14.07284         1.49432
| 74>    F       -7.97337       -16.57756         2.71824
| 75>    H        4.03296        -2.11948        -5.56829
| 76>    H       -0.00469        -3.66572        -2.81253
| 77>    H       -1.60901        -4.86041        -1.44022
| 78>    H        2.87058        -9.30686        -4.47367
| 79>    H       -0.89280       -11.28804        -3.09267
| 80>    H        0.04903       -11.21674        -1.60005
| 81>    H        0.38805       -13.32163        -3.80836
| 82>    H       -0.40237       -13.58777        -2.24659
| 83>    H        1.33379       -13.25359        -2.32048
| 84>    H       -5.80118        -9.94192         0.56836
| 85>    H       -6.67534       -12.02300         1.40798
| 86>    H        0.25472       -12.46668         0.47265
| 87>    H       -1.70059       -16.43802         1.02643
| 88>    H       -1.56849       -15.87201         2.69511
| 89>    H        0.68859       -17.19155         1.08604
| 90>    H       -0.24724       -17.96123         2.37708
| 91>    H        0.83498       -16.61052         2.74592
| 92>    H       -7.29501       -18.65357         3.28063
| 93>    H       -6.92561       -20.72554         4.49333
| 94>    H       -4.80199       -21.12619         5.71475
| 95>    H       -1.31903       -16.56212         5.01457
| 96>    H       -0.61772       -20.70734         6.54796
| 97>    H       -1.46886       -19.93584         7.89805
| 98>    H        1.52792       -19.64661         7.30421
| 99>    H        0.83215       -20.65147         8.58474
|100>    H        0.67833       -18.88952         8.65327
|101> *
|102>
|103>                          ****END OF INPUT****

CARTESIAN COORDINATES (ANGSTROEM)
---------------------------------
  C      3.216580   -4.045150   -6.205200
  C      2.347950   -5.018220   -5.652030
  C      1.889530   -4.684490   -4.403560
  S      2.543480   -3.148050   -3.926030
  C      3.422770   -2.980060   -5.386750
  C      0.978930   -5.407320   -3.540780
  C      0.031000   -4.744680   -2.782220
  C     -0.890790   -5.432480   -2.002780
  C     -0.910690   -6.820020   -1.949420
  C      0.084190   -7.524660   -2.680430
  C      1.039850   -6.820790   -3.454300
  N      0.104700   -8.872030   -2.631960
  C      1.044580   -9.503100   -3.294120
  C      2.059960   -8.779390   -3.992970
  N      2.045530   -7.488480   -4.065030
  O      1.102600  -10.825630   -3.328200
  C      0.074810  -11.539880   -2.644290
  C      0.368560  -13.023880   -2.763520
  F      3.771190   -4.164870   -7.416310
  F      1.963520   -6.097330   -6.337930
  C     -3.033070   -7.091510   -0.583230
  C     -3.791000   -8.091070    0.041170
  C     -3.234370   -9.347350   -0.051360
  S     -1.750740   -9.271450   -0.952320
  C     -1.891690   -7.559660   -1.200910
  C     -3.766070  -10.588470    0.447690
  C     -5.114040  -10.756090    0.729590
  C     -5.618380  -11.957880    1.209360
  C     -4.802880  -13.055370    1.446480
  C     -3.414470  -12.915440    1.178570
  C     -2.902440  -11.695390    0.669020
  N     -2.595250  -13.963610    1.394850
  C     -1.318240  -13.817100    1.138760
  C     -0.804030  -12.578810    0.653890
  N     -1.581550  -11.566980    0.422460
  O     -0.460890  -14.815300    1.312050
  C     -1.002010  -16.051790    1.777440
  C      0.145370  -17.016980    2.010960
  F     -3.429810   -5.808110   -0.579670
  F     -4.931730   -7.807980    0.690990
  C     -6.613220  -14.743210    1.998100
  C     -6.765810  -16.001190    2.598370
  C     -5.587740  -16.543490    3.063320
  S     -4.267810  -15.474360    2.703430
  C     -5.308830  -14.303050    1.955610
  C     -5.389150  -17.798970    3.744370
  C     -6.356450  -18.789370    3.791410
  C     -6.143380  -19.981230    4.488520
  C     -4.974230  -20.215140    5.164680
  C     -3.964090  -19.238870    5.146270
  C     -4.160490  -18.035720    4.419930
  N     -2.813120  -19.453170    5.824540
  C     -1.900510  -18.515950    5.784970
  C     -2.090940  -17.317020    5.036140
  N     -3.188740  -17.100800    4.379090
  O     -0.756380  -18.652770    6.450840
  C     -0.611010  -19.843550    7.222530
  C      0.693580  -19.751980    7.992290
  F     -7.663020  -14.072840    1.494320
  F     -7.973370  -16.577560    2.718240
  H      4.032960   -2.119480   -5.568290
  H     -0.004690   -3.665720   -2.812530
  H     -1.609010   -4.860410   -1.440220
  H      2.870580   -9.306860   -4.473670
  H     -0.892800  -11.288040   -3.092670
  H      0.049030  -11.216740   -1.600050
  H      0.388050  -13.321630   -3.808360
  H     -0.402370  -13.587770   -2.246590
  H      1.333790  -13.253590   -2.320480
  H     -5.801180   -9.941920    0.568360
  H     -6.675340  -12.023000    1.407980
  H      0.254720  -12.466680    0.472650
  H     -1.700590  -16.438020    1.026430
  H     -1.568490  -15.872010    2.695110
  H      0.688590  -17.191550    1.086040
  H     -0.247240  -17.961230    2.377080
  H      0.834980  -16.610520    2.745920
  H     -7.295010  -18.653570    3.280630
  H     -6.925610  -20.725540    4.493330
  H     -4.801990  -21.126190    5.714750
  H     -1.319030  -16.562120    5.014570
  H     -0.617720  -20.707340    6.547960
  H     -1.468860  -19.935840    7.898050
  H      1.527920  -19.646610    7.304210
  H      0.832150  -20.651470    8.584740
  H      0.678330  -18.889520    8.653270

 Total Charge           Charge          ....    0
 Multiplicity           Mult            ....    1
 Number of Electrons    NEL             ....  446
 Basis Dimension        Dim             ....  982

ORBITAL ENERGIES
----------------

  NO   OCC          E(Eh)            E(eV)
   0   2.0000     -88.960151     -2420.7288
   1   2.0000     -88.947288     -2420.3788
   2   2.0000     -88.947013     -2420.3713
   3   2.0000     -24.784667      -674.4251
   4   2.0000     -24.783861      -674.4032
   5   2.0000     -24.782884      -674.3766
   6   2.0000     -24.782283      -674.3602
   7   2.0000     -24.779694      -674.2897
   8   2.0000     -24.777490      -674.2298
   9   2.0000     -19.263778      -524.1941
  10   2.0000     -19.261099      -524.1212
  11   2.0000     -19.260851      -524.1144
  12   2.0000     -14.432920      -392.7397
  13   2.0000     -14.432454      -392.7270
  14   2.0000     -14.421764      -392.4362
  15   2.0000     -14.420851      -392.4113
  16   2.0000     -14.417198      -392.3119
  17   2.0000     -14.417024      -392.3072
  18   2.0000     -10.381443      -282.4934
  19   2.0000     -10.378172      -282.4044
  20   2.0000     -10.377478      -282.3855
  21   2.0000     -10.354813      -281.7688
  22   2.0000     -10.353900      -281.7440
  23   2.0000     -10.351023      -281.6656
  24   2.0000     -10.349475      -281.6235
  25   2.0000     -10.349066      -281.6124
  26   2.0000     -10.349005      -281.6107
  27   2.0000     -10.325101      -280.9603
  28   2.0000     -10.324949      -280.9561
  29   2.0000     -10.324225      -280.9364
  30   2.0000     -10.323570      -280.9186
  31   2.0000     -10.321312      -280.8572
  32   2.0000     -10.319640      -280.8117
  33   2.0000     -10.316456      -280.7250
  34   2.0000     -10.316410      -280.7238
  35   2.0000     -10.315488      -280.6987
  36   2.0000     -10.312049      -280.6051
  37   2.0000     -10.310851      -280.5725
  38   2.0000     -10.308358      -280.5047
  39   2.0000     -10.302280      -280.3393
  40   2.0000     -10.295309      -280.1496
  41   2.0000     -10.294223      -280.1200
  42   2.0000     -10.293927      -280.1120
  43   2.0000     -10.293413      -280.0980
  44   2.0000     -10.293280      -280.0944
  45   2.0000     -10.291890      -280.0566
  46   2.0000     -10.291677      -280.0508
  47   2.0000     -10.290440      -280.0171
  48   2.0000     -10.290360      -280.0149
  49   2.0000     -10.289090      -279.9804
  50   2.0000     -10.279301      -279.7140
  51   2.0000     -10.276833      -279.6468
  52   2.0000     -10.276592      -279.6403
  53   2.0000     -10.276385      -279.6346
  54   2.0000     -10.273736      -279.5626
  55   2.0000     -10.272774      -279.5364
  56   2.0000     -10.271750      -279.5085
  57   2.0000     -10.266167      -279.3566
  58   2.0000     -10.265470      -279.3376
  59   2.0000     -10.263877      -279.2943
  60   2.0000      -8.055680      -219.2062
  61   2.0000      -8.039280      -218.7599
  62   2.0000      -8.038973      -218.7516
  63   2.0000      -6.025064      -163.9503
  64   2.0000      -6.021069      -163.8416
  65   2.0000      -6.017448      -163.7431
  66   2.0000      -6.008937      -163.5115
  67   2.0000      -6.008636      -163.5033
  68   2.0000      -6.004486      -163.3904
  69   2.0000      -6.004178      -163.3820
  70   2.0000      -6.001020      -163.2960
  71   2.0000      -6.000727      -163.2881
  72   2.0000      -1.301796       -35.4237
  73   2.0000      -1.301183       -35.4070
  74   2.0000      -1.298814       -35.3425
  75   2.0000      -1.289310       -35.0839
  76   2.0000      -1.288721       -35.0679
  77   2.0000      -1.287135       -35.0247
  78   2.0000      -1.181684       -32.1553
  79   2.0000      -1.179541       -32.0969
  80   2.0000      -1.178692       -32.0738
  81   2.0000      -1.079523       -29.3753
  82   2.0000      -1.077343       -29.3160
  83   2.0000      -1.073241       -29.2044
  84   2.0000      -1.010261       -27.4906
  85   2.0000      -1.004525       -27.3345
  86   2.0000      -1.003925       -27.3182
  87   2.0000      -0.989859       -26.9354
  88   2.0000      -0.983132       -26.7524
  89   2.0000      -0.978949       -26.6386
  90   2.0000      -0.953349       -25.9419
  91   2.0000      -0.947468       -25.7819
  92   2.0000      -0.941954       -25.6319
  93   2.0000      -0.889449       -24.2031
  94   2.0000      -0.877456       -23.8768
  95   2.0000      -0.876671       -23.8554
  96   2.0000      -0.874551       -23.7977
  97   2.0000      -0.873214       -23.7614
  98   2.0000      -0.859404       -23.3856
  99   2.0000      -0.838515       -22.8172
 100   2.0000      -0.836221       -22.7547
 101   2.0000      -0.834637       -22.7116
 102   2.0000      -0.826852       -22.4998
 103   2.0000      -0.823269       -22.4023
 104   2.0000      -0.819965       -22.3124
 105   2.0000      -0.813303       -22.1311
 106   2.0000      -0.798851       -21.7378
 107   2.0000      -0.781946       -21.2778
 108   2.0000      -0.769295       -20.9336
 109   2.0000      -0.768311       -20.9068
 110   2.0000      -0.765532       -20.8312
 111   2.0000      -0.746076       -20.3018
 112   2.0000      -0.743850       -20.2412
 113   2.0000      -0.738219       -20.0880
 114   2.0000      -0.726210       -19.7612
 115   2.0000      -0.711472       -19.3601
 116   2.0000      -0.704070       -19.1587
 117   2.0000      -0.700215       -19.0538
 118   2.0000      -0.698412       -19.0047
 119   2.0000      -0.695340       -18.9212
 120   2.0000      -0.680579       -18.5195
 121   2.0000      -0.674398       -18.3513
 122   2.0000      -0.672248       -18.2928
 123   2.0000      -0.660414       -17.9708
 124   2.0000      -0.656275       -17.8582
 125   2.0000      -0.653557       -17.7842
 126   2.0000      -0.644498       -17.5377
 127   2.0000      -0.642954       -17.4957
 128   2.0000      -0.639736       -17.4081
 129   2.0000      -0.634443       -17.2641
 130   2.0000      -0.631607       -17.1869
 131   2.0000      -0.628660       -17.1067
 132   2.0000      -0.623445       -16.9648
 133   2.0000      -0.621374       -16.9084
 134   2.0000      -0.617857       -16.8127
 135   2.0000      -0.612125       -16.6568
 136   2.0000      -0.608162       -16.5489
 137   2.0000      -0.607149       -16.5214
 138   2.0000      -0.587376       -15.9833
 139   2.0000      -0.583918       -15.8892
 140   2.0000      -0.581935       -15.8353
 141   2.0000      -0.581029       -15.8106
 142   2.0000      -0.574226       -15.6255
 143   2.0000      -0.568447       -15.4682
 144   2.0000      -0.567570       -15.4444
 145   2.0000      -0.566124       -15.4050
 146   2.0000      -0.565846       -15.3975
 147   2.0000      -0.563508       -15.3338
 148   2.0000      -0.557712       -15.1761
 149   2.0000      -0.553798       -15.0696
 150   2.0000      -0.552855       -15.0439
 151   2.0000      -0.550979       -14.9929
 152   2.0000      -0.546439       -14.8694
 153   2.0000      -0.539891       -14.6912
 154   2.0000      -0.535427       -14.5697
 155   2.0000      -0.534098       -14.5335
 156   2.0000      -0.532914       -14.5013
 157   2.0000      -0.530413       -14.4333
 158   2.0000      -0.529819       -14.4171
 159   2.0000      -0.528509       -14.3815
 160   2.0000      -0.527243       -14.3470
 161   2.0000      -0.524897       -14.2832
 162   2.0000      -0.518038       -14.0965
 163   2.0000      -0.516334       -14.0502
 164   2.0000      -0.513073       -13.9614
 165   2.0000      -0.503965       -13.7136
 166   2.0000      -0.496719       -13.5164
 167   2.0000      -0.495227       -13.4758
 168   2.0000      -0.492126       -13.3914
 169   2.0000      -0.488820       -13.3015
 170   2.0000      -0.486244       -13.2314
 171   2.0000      -0.484182       -13.1753
 172   2.0000      -0.483095       -13.1457
 173   2.0000      -0.480834       -13.0842
 174   2.0000      -0.479725       -13.0540
 175   2.0000      -0.475913       -12.9502
 176   2.0000      -0.473712       -12.8904
 177   2.0000      -0.472977       -12.8703
 178   2.0000      -0.471882       -12.8406
 179   2.0000      -0.469879       -12.7861
 180   2.0000      -0.464019       -12.6266
 181   2.0000      -0.458901       -12.4873
 182   2.0000      -0.456144       -12.4123
 183   2.0000      -0.455942       -12.4068
 184   2.0000      -0.451029       -12.2731
 185   2.0000      -0.449480       -12.2310
 186   2.0000      -0.447035       -12.1644
 187   2.0000      -0.445377       -12.1193
 188   2.0000      -0.442353       -12.0370
 189   2.0000      -0.438589       -11.9346
 190   2.0000      -0.436785       -11.8855
 191   2.0000      -0.435363       -11.8468
 192   2.0000      -0.431416       -11.7394
 193   2.0000      -0.427935       -11.6447
 194   2.0000      -0.426656       -11.6099
 195   2.0000      -0.424140       -11.5414
 196   2.0000      -0.422384       -11.4936
 197   2.0000      -0.420089       -11.4312
 198   2.0000      -0.417395       -11.3579
 199   2.0000      -0.415628       -11.3098
 200   2.0000      -0.414583       -11.2814
 201   2.0000      -0.413045       -11.2395
 202   2.0000      -0.393883       -10.7181
 203   2.0000      -0.390336       -10.6216
 204   2.0000      -0.389565       -10.6006
 205   2.0000      -0.388252       -10.5649
 206   2.0000      -0.376081       -10.2337
 207   2.0000      -0.360817        -9.8183
 208   2.0000      -0.359054        -9.7704
 209   2.0000      -0.343560        -9.3487
 210   2.0000      -0.337624        -9.1872
 211   2.0000      -0.322716        -8.7816
 212   2.0000      -0.319931        -8.7058
 213   2.0000      -0.312242        -8.4965
 214   2.0000      -0.307356        -8.3636
 215   2.0000      -0.306740        -8.3468
 216   2.0000      -0.306232        -8.3330
 217   2.0000      -0.304612        -8.2889
 218   2.0000      -0.296213        -8.0604
 219   2.0000      -0.294263        -8.0073
 220   2.0000      -0.292494        -7.9592
 221   2.0000      -0.263636        -7.1739
 222   2.0000      -0.236222        -6.4279
 223   0.0000      -0.063363        -1.7242
 224   0.0000      -0.045720        -1.2441
 225   0.0000      -0.036248        -0.9864
 226   0.0000       0.000983         0.0267
 227   0.0000       0.007856         0.2138

MULLIKEN ATOMIC CHARGES
-----------------------
   0 C :    0.241029
   1 C :    0.246125
   2 C :   -0.240319
   3 S :    0.144779
   4 C :   -0.152123
   5 C :    0.128082
   6 C :   -0.041376
   7 C :   -0.062591
   8 C :    0.134477
   9 C :   -0.001188
  10 C :   -0.076720
  11 N :   -0.106465
  12 C :    0.128347
  13 C :    0.003973
  14 N :    0.025518
  15 O :   -0.283070
  16 C :    0.141551
  17 C :    0.014943
  18 F :   -0.178289
  19 F :   -0.168002
  20 C :    0.190254
  21 C :    0.197238
  22 C :   -0.159322
  23 S :    0.186193
  24 C :   -0.150485
  25 C :    0.141354
  26 C :   -0.059927
  27 C :   -0.051500
  28 C :    0.125030
  29 C :   -0.007971
  30 C :   -0.074885
  31 N :   -0.084214
  32 C :    0.123952
  33 C :    0.001862
  34 N :   -0.021841
  35 O :   -0.286349
  36 C :    0.147185
  37 C :    0.014936
  38 F :   -0.183526
  39 F :   -0.181220
  40 C :    0.190740
  41 C :    0.194746
  42 C :   -0.154966
  43 S :    0.181915
  44 C :   -0.149084
  45 C :    0.142211
  46 C :   -0.071435
  47 C :    0.055947
  48 C :   -0.016617
  49 C :    0.017953
  50 C :   -0.065352
  51 N :   -0.061557
  52 C :    0.116501
  53 C :    0.014496
  54 N :   -0.038999
  55 O :   -0.291464
  56 C :    0.163228
  57 C :    0.012504
  58 F :   -0.182530
  59 F :   -0.182618
  60 H :    0.035760
  61 H :   -0.017171
  62 H :   -0.006886
  63 H :    0.008670
  64 H :    0.024091
  65 H :    0.043472
  66 H :    0.026462
  67 H :    0.021571
  68 H :    0.023087
  69 H :   -0.010120
  70 H :   -0.007480
  71 H :    0.010889
  72 H :    0.022234
  73 H :    0.041654
  74 H :    0.023918
  75 H :    0.021832
  76 H :    0.024427
  77 H :   -0.009794
  78 H :   -0.006676
  79 H :   -0.031969
  80 H :    0.008302
  81 H :    0.018169
  82 H :    0.021987
  83 H :    0.024901
  84 H :    0.020947
  85 H :    0.026658
Sum of atomic charges:   -0.0000000

LOEWDIN ATOMIC CHARGES
----------------------
   0 C :    0.019225
   1 C :    0.026857
   2 C :   -0.200153
   3 S :    0.456005
   4 C :   -0.221308
   5 C :   -0.034634
   6 C :   -0.023210
   7 C :   -0.003669
   8 C :   -0.040406
   9 C :    0.003772
  10 C :   -0.022783
  11 N :   -0.111739
  12 C :    0.053776
  13 C :   -0.000317
  14 N :   -0.014616
  15 O :   -0.074466
  16 C :    0.083746
  17 C :   -0.061857
  18 F :   -0.056075
  19 F :   -0.044412
  20 C :    0.019056
  21 C :    0.021678
  22 C :   -0.212198
  23 S :    0.533205
  24 C :   -0.203843
  25 C :   -0.029552
  26 C :   -0.015131
  27 C :    0.001331
  28 C :   -0.046476
  29 C :    0.004427
  30 C :   -0.028573
  31 N :   -0.102759
  32 C :    0.048655
  33 C :   -0.004895
  34 N :   -0.034123
  35 O :   -0.079549
  36 C :    0.085162
  37 C :   -0.061967
  38 F :   -0.055365
  39 F :   -0.055695
  40 C :    0.017223
  41 C :    0.023081
  42 C :   -0.212193
  43 S :    0.530286
  44 C :   -0.205037
  45 C :   -0.026001
  46 C :   -0.020716
  47 C :   -0.006615
  48 C :   -0.029992
  49 C :    0.001203
  50 C :   -0.031275
  51 N :   -0.091252
  52 C :    0.044749
  53 C :   -0.002964
  54 N :   -0.040140
  55 O :   -0.086137
  56 C :    0.088075
  57 C :   -0.062685
  58 F :   -0.056642
  59 F :   -0.055300
  60 H :    0.031705
  61 H :    0.027186
  62 H :    0.031359
  63 H :    0.029333
  64 H :    0.018790
  65 H :    0.013567
  66 H :    0.030411
  67 H :    0.031370
  68 H :    0.028285
  69 H :    0.031891
  70 H :    0.032554
  71 H :    0.026111
  72 H :    0.019562
  73 H :    0.013740
  74 H :    0.029358
  75 H :    0.032459
  76 H :    0.028404
  77 H :    0.029398
  78 H :    0.033125
  79 H :    0.032051
  80 H :    0.025637
  81 H :    0.018235
  82 H :    0.018839
  83 H :    0.029046
  84 H :    0.033109
  85 H :    0.029682

  Mayer bond orders larger than 0.100000
B(  0-C ,  1-C ) :   1.1876 B(  0-C ,  4-C ) :   1.5468 B(  0-C , 18-F ) :   1.1347
B(  1-C ,  2-C ) :   1.4950 B(  1-C , 19-F ) :   1.1671 B(  2-C ,  3-S ) :   1.1406
B(  2-C ,  4-C ) :   0.1246 B(  2-C ,  5-C ) :   1.0045 B(  3-S ,  4-C ) :   1.1289
B(  4-C , 60-H ) :   0.9706 B(  5-C ,  6-C ) :   1.4191 B(  5-C ,  8-C ) :   0.1076
B(  5-C , 10-C ) :   1.2714 B(  6-C ,  7-C ) :   1.2701 B(  6-C , 61-H ) :   0.9954
B(  7-C ,  8-C ) :   1.4050 B(  7-C , 62-H ) :   0.9964 B(  8-C ,  9-C ) :   1.2252
B(  8-C , 24-C ) :   1.0900 B(  9-C , 10-C ) :   1.2624 B(  9-C , 11-N ) :   1.3883
B( 10-C , 14-N ) :   1.4242 B( 11-N , 12-C ) :   1.5572 B( 12-C , 13-C ) :   1.1570
B( 12-C , 15-O ) :   1.2273 B( 13-C , 14-N ) :   1.7389 B( 13-C , 63-H ) :   0.9721
B( 15-O , 16-C ) :   0.8978 B( 16-C , 17-C ) :   1.0990 B( 16-C , 64-H ) :   0.9548
B( 16-C , 65-H ) :   0.9532 B( 17-C , 66-H ) :   0.9657 B( 17-C , 67-H ) :   0.9606
B( 17-C , 68-H ) :   0.9678 B( 20-C , 21-C ) :   1.2295 B( 20-C , 24-C ) :   1.4500
B( 20-C , 38-F ) :   1.1140 B( 21-C , 22-C ) :   1.4699 B( 21-C , 39-F ) :   1.1314
B( 22-C , 23-S ) :   1.0812 B( 22-C , 24-C ) :   0.1293 B( 22-C , 25-C ) :   1.0612
B( 23-S , 24-C ) :   1.1089 B( 25-C , 26-C ) :   1.4054 B( 25-C , 28-C ) :   0.1100
B( 25-C , 30-C ) :   1.2284 B( 26-C , 27-C ) :   1.2643 B( 26-C , 69-H ) :   0.9994
B( 27-C , 28-C ) :   1.3998 B( 27-C , 70-H ) :   0.9977 B( 28-C , 29-C ) :   1.2246
B( 28-C , 44-C ) :   1.0710 B( 29-C , 30-C ) :   1.2584 B( 29-C , 31-N ) :   1.4118
B( 30-C , 34-N ) :   1.4159 B( 31-N , 32-C ) :   1.5575 B( 32-C , 33-C ) :   1.1744
B( 32-C , 35-O ) :   1.2310 B( 33-C , 34-N ) :   1.6884 B( 33-C , 71-H ) :   0.9628
B( 35-O , 36-C ) :   0.8966 B( 36-C , 37-C ) :   1.1000 B( 36-C , 72-H ) :   0.9544
B( 36-C , 73-H ) :   0.9558 B( 37-C , 74-H ) :   0.9663 B( 37-C , 75-H ) :   0.9605
B( 37-C , 76-H ) :   0.9677 B( 40-C , 41-C ) :   1.2282 B( 40-C , 44-C ) :   1.4655
B( 40-C , 58-F ) :   1.1251 B( 41-C , 42-C ) :   1.4615 B( 41-C , 59-F ) :   1.1200
B( 42-C , 43-S ) :   1.0936 B( 42-C , 44-C ) :   0.1302 B( 42-C , 45-C ) :   1.0717
B( 43-S , 44-C ) :   1.0933 B( 45-C , 46-C ) :   1.4493 B( 45-C , 48-C ) :   0.1011
B( 45-C , 50-C ) :   1.2146 B( 46-C , 47-C ) :   1.2569 B( 46-C , 77-H ) :   0.9969
B( 47-C , 48-C ) :   1.4185 B( 47-C , 78-H ) :   0.9852 B( 48-C , 49-C ) :   1.2699
B( 48-C , 79-H ) :   1.0100 B( 49-C , 50-C ) :   1.2543 B( 49-C , 51-N ) :   1.3928
B( 50-C , 54-N ) :   1.3967 B( 51-N , 52-C ) :   1.5690 B( 52-C , 53-C ) :   1.1763
B( 52-C , 55-O ) :   1.2159 B( 53-C , 54-N ) :   1.6819 B( 53-C , 80-H ) :   0.9629
B( 55-O , 56-C ) :   0.9077 B( 56-C , 57-C ) :   1.0923 B( 56-C , 81-H ) :   0.9590
B( 56-C , 82-H ) :   0.9563 B( 57-C , 83-H ) :   0.9682 B( 57-C , 84-H ) :   0.9620
B( 57-C , 85-H ) :   0.9693

-----------------------------------------------------------------------------
         ABSORPTION SPECTRUM VIA TRANSITION ELECTRIC DIPOLE MOMENTS
-----------------------------------------------------------------------------
State   Energy  Wavelength   fosc         T2         TX        TY        TZ
        (cm-1)    (nm)                  (au**2)     (au)      (au)      (au)
-----------------------------------------------------------------------------
   0   21481.1    465.5   1.298807798  19.90511  -1.66165  -3.50503   2.20426
   1   26008.5    384.5   0.116339909   1.47262   1.13433  -0.41139  -0.12911
   2   26683.8    374.8   0.183138230   2.25947  -0.66810  -0.88001   1.01916
   3   28951.1    345.4   0.004949721   0.05628   0.11648  -0.18568  -0.09078
   4   30589.9    326.9   0.011842139   0.12745  -0.00069  -0.28552  -0.21430
   5   31776.8    314.7   0.027524337   0.28516  -0.37500   0.36742  -0.09762
   6   32293.1    309.7   0.002885463   0.02942  -0.06753  -0.12129   0.10072
   7   32723.6    305.6   0.079805547   0.80287   0.11460  -0.85956   0.22560
   8   33157.9    301.6   0.015378376   0.15269  -0.38243   0.00451  -0.08007
   9   33271.9    300.6   0.038135385   0.37733   0.37616  -0.48559   0.00696
  10   33827.4    295.6   0.061303935   0.59662   0.06445   0.76806  -0.05051
  11   34146.1    292.9   0.149015076   1.43670  -0.67007  -0.72064   0.68438
  12   34787.2    287.5   0.299787215   2.83706  -1.11248  -1.01688   0.75194
  13   35466.5    282.0   0.191620547   1.77869   0.82203   0.94635  -0.45538
  14   35740.4    279.8   0.081195840   0.74791  -0.50921   0.23118  -0.65967
  15   36544.8    273.6   0.033584412   0.30254  -0.49196   0.03482  -0.24352
  16   36765.5    272.0   0.014079932   0.12608   0.23733   0.14003  -0.22392
  17   37311.5    268.0   0.191144518   1.68653  -0.95203  -0.71110   0.52393
  18   37752.9    264.9   0.020482755   0.17861  -0.03838   0.16756   0.38609
  19   38817.8    257.6   0.136725438   1.15956  -0.43059  -0.96861   0.18961
  20   39190.0    255.2   0.574195383   4.82347   1.71937  -1.36624  -0.02487
  21   39532.1    253.0   0.116958211   0.97400  -0.37980   0.84063   0.35085
  22   39989.2    250.1   0.018367100   0.15121   0.17868  -0.30109  -0.16918
  23   40276.1    248.3   0.086851347   0.70991  -0.62519  -0.56105   0.06530

FINAL SINGLE POINT ENERGY     -3960.258905081600

DIPOLE MOMENT
-------------
                                X             Y             Z
Electronic contribution:    -24.55400      81.35964     -43.20101
Nuclear contribution   :     25.82047     -83.50612      44.60969
                        -----------------------------------------
Total Dipole Moment    :      1.26647      -2.14648       1.40867
                        -----------------------------------------
Magnitude (a.u.)       :      2.86281
Magnitude (Debye)      :      7.27669

Rotational constants in cm-1:     0.002778     0.000436     0.000400
Rotational constants in MHz :    83.287834    13.075709    11.997058

                             ****ORCA TERMINATED NORMALLY****
TOTAL RUN TIME: 0 days 0 hours 6 minutes 6 seconds 937 msec
