                         Program Version 4.2.0 -  RELEASE  -
|  1> # ORCA input file
|  2> # SCF done       -158.470661881927          0.000851036576
|  3> ! CAM-B3LYP def2-SVP def2/J RIJCOSX Grid4 TightSCF
|  4> %maxcore 5000
|  5> %tddft
|  6>     Mode sTDDFT
|  7>     Ethresh 5.0
|  8>     maxcore 5000
|  9> end
| 10>
| 11> %pal
| 12>   nprocs 6
| 13>   end
| 14> * xyz 0 1
| 15>    C       -5.55549         1.09033        -4.75583
| 16>    C       -4.70765         1.75022        -3.84967
| 17>    C       -4.84720         3.11556        -3.86549
| 18>    S       -6.06448         3.58058        -5.03270
| 19>    C       -6.34481         1.94629        -5.45875
| 20>    C       -4.16003         4.12774        -3.10478
| 21>    C       -4.44098         5.46716        -3.32004
| 22>    C       -3.78367         6.46979        -2.62478
| 23>    C       -2.79600         6.23469        -1.67990
| 24>    C       -2.51734         4.86480        -1.40911
| 25>    C       -3.18231         3.82157        -2.11225
| 26>    N       -1.63201         4.56953        -0.43417
| 27>    C       -1.39423         3.31192        -0.15889
| 28>    C       -2.02424         2.27039        -0.89486
| 29>    N       -2.88493         2.53435        -1.82770
| 30>    O       -0.56343         2.97541         0.82360
| 31>    C        0.02838         4.04113         1.56478
| 32>    C        0.62238         3.46165         2.83551
| 33>    F       -4.12378         7.73856        -2.92938
| 34>    C       -0.80996         7.28510        -0.50679
| 35>    C       -0.42354         8.49240         0.07807
| 36>    C       -1.40906         9.45337         0.05684
| 37>    S       -2.83626         8.84075        -0.72940
| 38>    C       -2.09332         7.29837        -1.00371
| 39>    C       -1.39926        10.79891         0.56543
| 40>    C       -2.58854        11.49683         0.70302
| 41>    C       -2.61424        12.79430         1.18738
| 42>    C       -1.48062        13.51034         1.54617
| 43>    C       -0.24456        12.81541         1.41303
| 44>    C       -0.20002        11.47544         0.93572
| 45>    N        0.89435        13.44132         1.77937
| 46>    C        2.02877        12.79672         1.67230
| 47>    C        2.07391        11.47047         1.16035
| 48>    N        0.99054        10.84819         0.81356
| 49>    O        3.17310        13.36719         2.04061
| 50>    C        3.09789        14.69952         2.54352
| 51>    C        4.45077        15.06133         3.12862
| 52>    F       -3.82587        13.37787         1.28468
| 53>    C       -0.58819        15.85327         1.93170
| 54>    C       -0.96997        17.06476         2.51205
| 55>    C       -2.22147        17.03044         3.08225
| 56>    S       -2.94048        15.46016         2.87264
| 57>    C       -1.54258        14.86774         2.03279
| 58>    C       -2.94752        18.06497         3.77581
| 59>    C       -4.06605        17.73992         4.52561
| 60>    C       -4.78296        18.72279         5.20292
| 61>    C       -4.44538        20.04892         5.16518
| 62>    C       -3.32654        20.41891         4.40279
| 63>    C       -2.56344        19.43764         3.71000
| 64>    N       -2.99632        21.72952         4.33750
| 65>    C       -1.95791        22.06295         3.61369
| 66>    C       -1.19092        21.08044         2.92328
| 67>    N       -1.49361        19.82031         2.97750
| 68>    O       -1.59287        23.33717         3.49796
| 69>    C       -2.39966        24.29046         4.18628
| 70>    C       -1.86396        25.67571         3.87470
| 71>    F       -5.85422        18.33658         5.92353
| 72>    H       -5.58103         0.02227        -4.87870
| 73>    H       -4.01092         1.25360        -3.20233
| 74>    H       -7.07833         1.71717        -6.20637
| 75>    H       -5.18011         5.76147        -4.04957
| 76>    H       -1.80605         1.23369        -0.68423
| 77>    H       -0.73688         4.79324         1.78430
| 78>    H        0.80324         4.51176         0.94853
| 79>    H       -0.15592         2.99244         3.43159
| 80>    H        1.08521         4.25431         3.41574
| 81>    H        1.37149         2.71312         2.59207
| 82>    H       -0.17169         6.42632        -0.58870
| 83>    H        0.54351         8.67303         0.50718
| 84>    H       -3.52743        11.03636         0.43589
| 85>    H        3.01539        10.95193         1.05121
| 86>    H        2.30470        14.75497         3.29716
| 87>    H        2.83456        15.37380         1.72016
| 88>    H        4.70066        14.38543         3.94188
| 89>    H        4.42438        16.07884         3.50712
| 90>    H        5.22048        14.98454         2.36545
| 91>    H        0.34804        15.69559         1.43239
| 92>    H       -0.36076        17.94830         2.51952
| 93>    H       -4.39616        16.71499         4.59930
| 94>    H       -5.01102        20.79899         5.69143
| 95>    H       -0.33543        21.37067         2.33050
| 96>    H       -2.36141        24.07799         5.26082
| 97>    H       -3.43895        24.17929         3.85709
| 98>    H       -0.82806        25.75681         4.19286
| 99>    H       -2.45601        26.42175         4.39632
|100>    H       -1.91395        25.86542         2.80578
|101> *
|102>
|103>                          ****END OF INPUT****

CARTESIAN COORDINATES (ANGSTROEM)
---------------------------------
  C     -5.555490    1.090330   -4.755830
  C     -4.707650    1.750220   -3.849670
  C     -4.847200    3.115560   -3.865490
  S     -6.064480    3.580580   -5.032700
  C     -6.344810    1.946290   -5.458750
  C     -4.160030    4.127740   -3.104780
  C     -4.440980    5.467160   -3.320040
  C     -3.783670    6.469790   -2.624780
  C     -2.796000    6.234690   -1.679900
  C     -2.517340    4.864800   -1.409110
  C     -3.182310    3.821570   -2.112250
  N     -1.632010    4.569530   -0.434170
  C     -1.394230    3.311920   -0.158890
  C     -2.024240    2.270390   -0.894860
  N     -2.884930    2.534350   -1.827700
  O     -0.563430    2.975410    0.823600
  C      0.028380    4.041130    1.564780
  C      0.622380    3.461650    2.835510
  F     -4.123780    7.738560   -2.929380
  C     -0.809960    7.285100   -0.506790
  C     -0.423540    8.492400    0.078070
  C     -1.409060    9.453370    0.056840
  S     -2.836260    8.840750   -0.729400
  C     -2.093320    7.298370   -1.003710
  C     -1.399260   10.798910    0.565430
  C     -2.588540   11.496830    0.703020
  C     -2.614240   12.794300    1.187380
  C     -1.480620   13.510340    1.546170
  C     -0.244560   12.815410    1.413030
  C     -0.200020   11.475440    0.935720
  N      0.894350   13.441320    1.779370
  C      2.028770   12.796720    1.672300
  C      2.073910   11.470470    1.160350
  N      0.990540   10.848190    0.813560
  O      3.173100   13.367190    2.040610
  C      3.097890   14.699520    2.543520
  C      4.450770   15.061330    3.128620
  F     -3.825870   13.377870    1.284680
  C     -0.588190   15.853270    1.931700
  C     -0.969970   17.064760    2.512050
  C     -2.221470   17.030440    3.082250
  S     -2.940480   15.460160    2.872640
  C     -1.542580   14.867740    2.032790
  C     -2.947520   18.064970    3.775810
  C     -4.066050   17.739920    4.525610
  C     -4.782960   18.722790    5.202920
  C     -4.445380   20.048920    5.165180
  C     -3.326540   20.418910    4.402790
  C     -2.563440   19.437640    3.710000
  N     -2.996320   21.729520    4.337500
  C     -1.957910   22.062950    3.613690
  C     -1.190920   21.080440    2.923280
  N     -1.493610   19.820310    2.977500
  O     -1.592870   23.337170    3.497960
  C     -2.399660   24.290460    4.186280
  C     -1.863960   25.675710    3.874700
  F     -5.854220   18.336580    5.923530
  H     -5.581030    0.022270   -4.878700
  H     -4.010920    1.253600   -3.202330
  H     -7.078330    1.717170   -6.206370
  H     -5.180110    5.761470   -4.049570
  H     -1.806050    1.233690   -0.684230
  H     -0.736880    4.793240    1.784300
  H      0.803240    4.511760    0.948530
  H     -0.155920    2.992440    3.431590
  H      1.085210    4.254310    3.415740
  H      1.371490    2.713120    2.592070
  H     -0.171690    6.426320   -0.588700
  H      0.543510    8.673030    0.507180
  H     -3.527430   11.036360    0.435890
  H      3.015390   10.951930    1.051210
  H      2.304700   14.754970    3.297160
  H      2.834560   15.373800    1.720160
  H      4.700660   14.385430    3.941880
  H      4.424380   16.078840    3.507120
  H      5.220480   14.984540    2.365450
  H      0.348040   15.695590    1.432390
  H     -0.360760   17.948300    2.519520
  H     -4.396160   16.714990    4.599300
  H     -5.011020   20.798990    5.691430
  H     -0.335430   21.370670    2.330500
  H     -2.361410   24.077990    5.260820
  H     -3.438950   24.179290    3.857090
  H     -0.828060   25.756810    4.192860
  H     -2.456010   26.421750    4.396320
  H     -1.913950   25.865420    2.805780

 Total Charge           Charge          ....    0
 Multiplicity           Mult            ....    1
 Number of Electrons    NEL             ....  422
 Basis Dimension        Dim             ....  955

ORBITAL ENERGIES
----------------

  NO   OCC          E(Eh)            E(eV)
   0   2.0000     -88.945152     -2420.3206
   1   2.0000     -88.940871     -2420.2041
   2   2.0000     -88.938265     -2420.1332
   3   2.0000     -24.782037      -674.3535
   4   2.0000     -24.780115      -674.3012
   5   2.0000     -24.770351      -674.0355
   6   2.0000     -19.258820      -524.0591
   7   2.0000     -19.257751      -524.0301
   8   2.0000     -19.254143      -523.9319
   9   2.0000     -14.424934      -392.5224
  10   2.0000     -14.422970      -392.4690
  11   2.0000     -14.419684      -392.3795
  12   2.0000     -14.412884      -392.1945
  13   2.0000     -14.411349      -392.1528
  14   2.0000     -14.407875      -392.0582
  15   2.0000     -10.375429      -282.3298
  16   2.0000     -10.373821      -282.2860
  17   2.0000     -10.369284      -282.1626
  18   2.0000     -10.360515      -281.9239
  19   2.0000     -10.358400      -281.8664
  20   2.0000     -10.353479      -281.7325
  21   2.0000     -10.322644      -280.8934
  22   2.0000     -10.322553      -280.8909
  23   2.0000     -10.322367      -280.8859
  24   2.0000     -10.320810      -280.8435
  25   2.0000     -10.318806      -280.7890
  26   2.0000     -10.317167      -280.7444
  27   2.0000     -10.315147      -280.6894
  28   2.0000     -10.313969      -280.6574
  29   2.0000     -10.311504      -280.5903
  30   2.0000     -10.310728      -280.5692
  31   2.0000     -10.308609      -280.5115
  32   2.0000     -10.303950      -280.3847
  33   2.0000     -10.297776      -280.2167
  34   2.0000     -10.294792      -280.1355
  35   2.0000     -10.293192      -280.0920
  36   2.0000     -10.292774      -280.0806
  37   2.0000     -10.290984      -280.0319
  38   2.0000     -10.290279      -280.0127
  39   2.0000     -10.288705      -279.9699
  40   2.0000     -10.287206      -279.9291
  41   2.0000     -10.286895      -279.9207
  42   2.0000     -10.285603      -279.8855
  43   2.0000     -10.284332      -279.8509
  44   2.0000     -10.278030      -279.6794
  45   2.0000     -10.275456      -279.6094
  46   2.0000     -10.271957      -279.5142
  47   2.0000     -10.265298      -279.3329
  48   2.0000     -10.262612      -279.2599
  49   2.0000     -10.262275      -279.2507
  50   2.0000     -10.261091      -279.2185
  51   2.0000     -10.260096      -279.1914
  52   2.0000     -10.256782      -279.1012
  53   2.0000     -10.255483      -279.0659
  54   2.0000     -10.253828      -279.0209
  55   2.0000     -10.252463      -278.9837
  56   2.0000     -10.251116      -278.9470
  57   2.0000      -8.041019      -218.8072
  58   2.0000      -8.036372      -218.6808
  59   2.0000      -8.033777      -218.6102
  60   2.0000      -6.010277      -163.5479
  61   2.0000      -6.005999      -163.4315
  62   2.0000      -6.005615      -163.4211
  63   2.0000      -6.003382      -163.3603
  64   2.0000      -6.003019      -163.3505
  65   2.0000      -6.001445      -163.3076
  66   2.0000      -5.998852      -163.2371
  67   2.0000      -5.998582      -163.2297
  68   2.0000      -5.995978      -163.1589
  69   2.0000      -1.296505       -35.2797
  70   2.0000      -1.294528       -35.2259
  71   2.0000      -1.284581       -34.9552
  72   2.0000      -1.176147       -32.0046
  73   2.0000      -1.174955       -31.9722
  74   2.0000      -1.171647       -31.8821
  75   2.0000      -1.072854       -29.1939
  76   2.0000      -1.070941       -29.1418
  77   2.0000      -1.066004       -29.0074
  78   2.0000      -1.000821       -27.2337
  79   2.0000      -0.998776       -27.1781
  80   2.0000      -0.993007       -27.0211
  81   2.0000      -0.977370       -26.5956
  82   2.0000      -0.973395       -26.4874
  83   2.0000      -0.969735       -26.3878
  84   2.0000      -0.951626       -25.8951
  85   2.0000      -0.944332       -25.6966
  86   2.0000      -0.937508       -25.5109
  87   2.0000      -0.886671       -24.1275
  88   2.0000      -0.875074       -23.8120
  89   2.0000      -0.871920       -23.7261
  90   2.0000      -0.871009       -23.7013
  91   2.0000      -0.867028       -23.5930
  92   2.0000      -0.852106       -23.1870
  93   2.0000      -0.836375       -22.7589
  94   2.0000      -0.834481       -22.7074
  95   2.0000      -0.830222       -22.5915
  96   2.0000      -0.818733       -22.2789
  97   2.0000      -0.814149       -22.1541
  98   2.0000      -0.812918       -22.1206
  99   2.0000      -0.807759       -21.9802
 100   2.0000      -0.793133       -21.5822
 101   2.0000      -0.772926       -21.0324
 102   2.0000      -0.764011       -20.7898
 103   2.0000      -0.762088       -20.7375
 104   2.0000      -0.758520       -20.6404
 105   2.0000      -0.742655       -20.2087
 106   2.0000      -0.738761       -20.1027
 107   2.0000      -0.732001       -19.9188
 108   2.0000      -0.727992       -19.8097
 109   2.0000      -0.712234       -19.3809
 110   2.0000      -0.705077       -19.1861
 111   2.0000      -0.696372       -18.9492
 112   2.0000      -0.691180       -18.8080
 113   2.0000      -0.682053       -18.5596
 114   2.0000      -0.659733       -17.9522
 115   2.0000      -0.656373       -17.8608
 116   2.0000      -0.651570       -17.7301
 117   2.0000      -0.650261       -17.6945
 118   2.0000      -0.641996       -17.4696
 119   2.0000      -0.636314       -17.3150
 120   2.0000      -0.633503       -17.2385
 121   2.0000      -0.630348       -17.1526
 122   2.0000      -0.627631       -17.0787
 123   2.0000      -0.617550       -16.8044
 124   2.0000      -0.614660       -16.7258
 125   2.0000      -0.613245       -16.6873
 126   2.0000      -0.608687       -16.5632
 127   2.0000      -0.604612       -16.4523
 128   2.0000      -0.601372       -16.3642
 129   2.0000      -0.589778       -16.0487
 130   2.0000      -0.586551       -15.9609
 131   2.0000      -0.582807       -15.8590
 132   2.0000      -0.579098       -15.7580
 133   2.0000      -0.578245       -15.7349
 134   2.0000      -0.575156       -15.6508
 135   2.0000      -0.573956       -15.6181
 136   2.0000      -0.571785       -15.5591
 137   2.0000      -0.569393       -15.4940
 138   2.0000      -0.559750       -15.2316
 139   2.0000      -0.555444       -15.1144
 140   2.0000      -0.553038       -15.0489
 141   2.0000      -0.551438       -15.0054
 142   2.0000      -0.543922       -14.8009
 143   2.0000      -0.541553       -14.7364
 144   2.0000      -0.538561       -14.6550
 145   2.0000      -0.535936       -14.5836
 146   2.0000      -0.532556       -14.4916
 147   2.0000      -0.525263       -14.2931
 148   2.0000      -0.523886       -14.2557
 149   2.0000      -0.518687       -14.1142
 150   2.0000      -0.497215       -13.5299
 151   2.0000      -0.495893       -13.4939
 152   2.0000      -0.493506       -13.4290
 153   2.0000      -0.492030       -13.3888
 154   2.0000      -0.489701       -13.3254
 155   2.0000      -0.488969       -13.3055
 156   2.0000      -0.486584       -13.2406
 157   2.0000      -0.485806       -13.2195
 158   2.0000      -0.482844       -13.1388
 159   2.0000      -0.480243       -13.0681
 160   2.0000      -0.479298       -13.0424
 161   2.0000      -0.477763       -13.0006
 162   2.0000      -0.475400       -12.9363
 163   2.0000      -0.474248       -12.9049
 164   2.0000      -0.469981       -12.7888
 165   2.0000      -0.469686       -12.7808
 166   2.0000      -0.469008       -12.7623
 167   2.0000      -0.466819       -12.7028
 168   2.0000      -0.465795       -12.6749
 169   2.0000      -0.460654       -12.5350
 170   2.0000      -0.458138       -12.4666
 171   2.0000      -0.456573       -12.4240
 172   2.0000      -0.449427       -12.2295
 173   2.0000      -0.445827       -12.1316
 174   2.0000      -0.442754       -12.0480
 175   2.0000      -0.440625       -11.9900
 176   2.0000      -0.438398       -11.9294
 177   2.0000      -0.434799       -11.8315
 178   2.0000      -0.431514       -11.7421
 179   2.0000      -0.427259       -11.6263
 180   2.0000      -0.426869       -11.6157
 181   2.0000      -0.422356       -11.4929
 182   2.0000      -0.421424       -11.4675
 183   2.0000      -0.419839       -11.4244
 184   2.0000      -0.416550       -11.3349
 185   2.0000      -0.415866       -11.3163
 186   2.0000      -0.412775       -11.2322
 187   2.0000      -0.405131       -11.0242
 188   2.0000      -0.397346       -10.8123
 189   2.0000      -0.394758       -10.7419
 190   2.0000      -0.391319       -10.6483
 191   2.0000      -0.387720       -10.5504
 192   2.0000      -0.383392       -10.4326
 193   2.0000      -0.376418       -10.2429
 194   2.0000      -0.376210       -10.2372
 195   2.0000      -0.375158       -10.2086
 196   2.0000      -0.349991        -9.5237
 197   2.0000      -0.335748        -9.1362
 198   2.0000      -0.325066        -8.8455
 199   2.0000      -0.323184        -8.7943
 200   2.0000      -0.319840        -8.7033
 201   2.0000      -0.313570        -8.5327
 202   2.0000      -0.311908        -8.4875
 203   2.0000      -0.306284        -8.3344
 204   2.0000      -0.303579        -8.2608
 205   2.0000      -0.302345        -8.2272
 206   2.0000      -0.300444        -8.1755
 207   2.0000      -0.296176        -8.0594
 208   2.0000      -0.285946        -7.7810
 209   2.0000      -0.257151        -6.9974
 210   2.0000      -0.233228        -6.3465
 211   0.0000      -0.057428        -1.5627
 212   0.0000      -0.042090        -1.1453
 213   0.0000      -0.030958        -0.8424
 214   0.0000       0.001645         0.0448
 215   0.0000       0.009107         0.2478

MULLIKEN ATOMIC CHARGES
-----------------------
   0 C :    0.047548
   1 C :    0.016982
   2 C :   -0.164336
   3 S :    0.086633
   4 C :   -0.055580
   5 C :    0.216004
   6 C :   -0.155618
   7 C :    0.209945
   8 C :    0.064483
   9 C :   -0.038606
  10 C :   -0.074266
  11 N :   -0.067893
  12 C :    0.127827
  13 C :    0.008724
  14 N :    0.001689
  15 O :   -0.288684
  16 C :    0.149414
  17 C :    0.009505
  18 F :   -0.184883
  19 C :    0.049007
  20 C :    0.011120
  21 C :   -0.120493
  22 S :    0.118786
  23 C :   -0.112696
  24 C :    0.189122
  25 C :   -0.146016
  26 C :    0.212406
  27 C :    0.070595
  28 C :   -0.036231
  29 C :   -0.071568
  30 N :   -0.068065
  31 C :    0.126391
  32 C :    0.006153
  33 N :    0.001444
  34 O :   -0.289424
  35 C :    0.143564
  36 C :    0.014935
  37 F :   -0.185667
  38 C :    0.051193
  39 C :    0.014257
  40 C :   -0.122135
  41 S :    0.117349
  42 C :   -0.114868
  43 C :    0.174277
  44 C :   -0.135429
  45 C :    0.331464
  46 C :   -0.107576
  47 C :    0.013872
  48 C :   -0.061121
  49 N :   -0.077245
  50 C :    0.121986
  51 C :    0.010286
  52 N :   -0.000598
  53 O :   -0.291264
  54 C :    0.163239
  55 C :    0.014464
  56 F :   -0.197201
  57 H :   -0.012267
  58 H :   -0.003479
  59 H :    0.026522
  60 H :    0.000288
  61 H :    0.004073
  62 H :    0.038446
  63 H :    0.022572
  64 H :    0.026463
  65 H :    0.021896
  66 H :    0.025708
  67 H :   -0.028282
  68 H :   -0.015498
  69 H :   -0.002559
  70 H :    0.002548
  71 H :    0.036791
  72 H :    0.026397
  73 H :    0.026038
  74 H :    0.021009
  75 H :    0.025018
  76 H :   -0.033580
  77 H :   -0.015140
  78 H :   -0.001842
  79 H :   -0.028309
  80 H :    0.001443
  81 H :    0.019022
  82 H :    0.020286
  83 H :    0.024099
  84 H :    0.019798
  85 H :    0.025339
Sum of atomic charges:    0.0000000

LOEWDIN ATOMIC CHARGES
----------------------
   0 C :   -0.068630
   1 C :   -0.043199
   2 C :   -0.173601
   3 S :    0.428210
   4 C :   -0.178479
   5 C :   -0.012705
   6 C :   -0.058880
   7 C :    0.094454
   8 C :   -0.082140
   9 C :    0.017871
  10 C :   -0.029715
  11 N :   -0.085794
  12 C :    0.050053
  13 C :   -0.004518
  14 N :   -0.013745
  15 O :   -0.082588
  16 C :    0.088329
  17 C :   -0.062166
  18 F :   -0.062802
  19 C :   -0.049159
  20 C :   -0.046404
  21 C :   -0.173282
  22 S :    0.446212
  23 C :   -0.164717
  24 C :   -0.015109
  25 C :   -0.057912
  26 C :    0.094614
  27 C :   -0.082125
  28 C :    0.017626
  29 C :   -0.029622
  30 N :   -0.086360
  31 C :    0.049803
  32 C :   -0.006879
  33 N :   -0.014339
  34 O :   -0.083306
  35 C :    0.087865
  36 C :   -0.061901
  37 F :   -0.063028
  38 C :   -0.050500
  39 C :   -0.046641
  40 C :   -0.174610
  41 S :    0.445095
  42 C :   -0.164732
  43 C :   -0.010835
  44 C :   -0.062241
  45 C :    0.096982
  46 C :   -0.067007
  47 C :    0.009158
  48 C :   -0.034025
  49 N :   -0.098172
  50 C :    0.047772
  51 C :   -0.009146
  52 N :   -0.016046
  53 O :   -0.084798
  54 C :    0.087844
  55 C :   -0.062883
  56 F :   -0.069387
  57 H :    0.029058
  58 H :    0.027129
  59 H :    0.023212
  60 H :    0.031179
  61 H :    0.027349
  62 H :    0.022178
  63 H :    0.017868
  64 H :    0.029849
  65 H :    0.033352
  66 H :    0.029177
  67 H :    0.023377
  68 H :    0.025633
  69 H :    0.032141
  70 H :    0.026760
  71 H :    0.022008
  72 H :    0.018064
  73 H :    0.029596
  74 H :    0.033224
  75 H :    0.029195
  76 H :    0.022703
  77 H :    0.025404
  78 H :    0.030462
  79 H :    0.039732
  80 H :    0.026122
  81 H :    0.018381
  82 H :    0.018503
  83 H :    0.028894
  84 H :    0.032516
  85 H :    0.029174

  Mayer bond orders larger than 0.100000
B(  0-C ,  1-C ) :   1.2285 B(  0-C ,  4-C ) :   1.5624 B(  0-C , 57-H ) :   0.9944
B(  1-C ,  2-C ) :   1.5555 B(  1-C , 58-H ) :   0.9787 B(  2-C ,  3-S ) :   1.1235
B(  2-C ,  5-C ) :   1.1141 B(  3-S ,  4-C ) :   1.1679 B(  4-C , 59-H ) :   0.9743
B(  5-C ,  6-C ) :   1.3468 B(  5-C ,  8-C ) :   0.1094 B(  5-C , 10-C ) :   1.2252
B(  6-C ,  7-C ) :   1.2789 B(  6-C , 60-H ) :   0.9956 B(  7-C ,  8-C ) :   1.3593
B(  7-C , 18-F ) :   1.1149 B(  8-C ,  9-C ) :   1.2404 B(  8-C , 23-C ) :   1.0363
B(  9-C , 10-C ) :   1.2365 B(  9-C , 11-N ) :   1.4569 B( 10-C , 14-N ) :   1.4429
B( 11-N , 12-C ) :   1.5536 B( 12-C , 13-C ) :   1.1717 B( 12-C , 15-O ) :   1.2127
B( 13-C , 14-N ) :   1.7068 B( 13-C , 61-H ) :   0.9713 B( 15-O , 16-C ) :   0.9048
B( 16-C , 17-C ) :   1.0970 B( 16-C , 62-H ) :   0.9523 B( 16-C , 63-H ) :   0.9591
B( 17-C , 64-H ) :   0.9704 B( 17-C , 65-H ) :   0.9624 B( 17-C , 66-H ) :   0.9671
B( 19-C , 20-C ) :   1.2267 B( 19-C , 23-C ) :   1.5258 B( 19-C , 67-H ) :   0.9954
B( 20-C , 21-C ) :   1.5190 B( 20-C , 68-H ) :   0.9863 B( 21-C , 22-S ) :   1.1143
B( 21-C , 23-C ) :   0.1107 B( 21-C , 24-C ) :   1.0927 B( 22-S , 23-C ) :   1.1359
B( 24-C , 25-C ) :   1.3446 B( 24-C , 27-C ) :   0.1119 B( 24-C , 29-C ) :   1.2344
B( 25-C , 26-C ) :   1.2737 B( 25-C , 69-H ) :   0.9983 B( 26-C , 27-C ) :   1.3513
B( 26-C , 37-F ) :   1.1108 B( 27-C , 28-C ) :   1.2410 B( 27-C , 42-C ) :   1.0382
B( 28-C , 29-C ) :   1.2356 B( 28-C , 30-N ) :   1.4543 B( 29-C , 33-N ) :   1.4428
B( 30-N , 31-C ) :   1.5552 B( 31-C , 32-C ) :   1.1736 B( 31-C , 34-O ) :   1.2085
B( 32-C , 33-N ) :   1.7072 B( 32-C , 70-H ) :   0.9711 B( 34-O , 35-C ) :   0.9067
B( 35-C , 36-C ) :   1.0961 B( 35-C , 71-H ) :   0.9544 B( 35-C , 72-H ) :   0.9583
B( 36-C , 73-H ) :   0.9695 B( 36-C , 74-H ) :   0.9620 B( 36-C , 75-H ) :   0.9669
B( 38-C , 39-C ) :   1.2228 B( 38-C , 42-C ) :   1.5313 B( 38-C , 76-H ) :   0.9940
B( 39-C , 40-C ) :   1.5275 B( 39-C , 77-H ) :   0.9856 B( 40-C , 41-S ) :   1.1148
B( 40-C , 42-C ) :   0.1111 B( 40-C , 43-C ) :   1.0790 B( 41-S , 42-C ) :   1.1345
B( 43-C , 44-C ) :   1.3903 B( 43-C , 46-C ) :   0.1019 B( 43-C , 48-C ) :   1.2258
B( 44-C , 45-C ) :   1.2535 B( 44-C , 78-H ) :   0.9953 B( 45-C , 46-C ) :   1.3721
B( 45-C , 56-F ) :   1.0733 B( 46-C , 47-C ) :   1.2195 B( 46-C , 79-H ) :   1.0297
B( 47-C , 48-C ) :   1.2427 B( 47-C , 49-N ) :   1.3898 B( 48-C , 52-N ) :   1.4344
B( 49-N , 50-C ) :   1.5635 B( 50-C , 51-C ) :   1.1718 B( 50-C , 53-O ) :   1.2076
B( 51-C , 52-N ) :   1.7114 B( 51-C , 80-H ) :   0.9710 B( 53-O , 54-C ) :   0.9090
B( 54-C , 55-C ) :   1.0920 B( 54-C , 81-H ) :   0.9584 B( 54-C , 82-H ) :   0.9570
B( 55-C , 83-H ) :   0.9685 B( 55-C , 84-H ) :   0.9617 B( 55-C , 85-H ) :   0.9690

-----------------------------------------------------------------------------
         ABSORPTION SPECTRUM VIA TRANSITION ELECTRIC DIPOLE MOMENTS
-----------------------------------------------------------------------------
State   Energy  Wavelength   fosc         T2         TX        TY        TZ
        (cm-1)    (nm)                  (au**2)     (au)      (au)      (au)
-----------------------------------------------------------------------------
   0   22280.1    448.8   1.548442678  22.87990   0.65316   4.28495   2.02300
   1   25859.7    386.7   0.143975635   1.83291   1.27214  -0.31297   0.34149
   2   27753.3    360.3   0.176997358   2.09956  -0.77608   1.10263   0.53054
   3   29420.4    339.9   0.067472182   0.75501   0.69956   0.37923   0.34901
   4   31885.2    313.6   0.056330649   0.58161   0.12275   0.74773  -0.08628
   5   32953.0    303.5   0.145253847   1.45114   0.68288   0.63494   0.76267
   6   33261.4    300.6   0.035633525   0.35269   0.24914  -0.16278   0.51393
   7   33996.4    294.1   0.014157890   0.13710   0.31746  -0.09669   0.16423
   8   34224.1    292.2   0.356565582   3.42991  -0.29283   1.74733   0.53944
   9   35211.2    284.0   0.034555188   0.32308   0.11627  -0.09294  -0.54856
  10   35732.8    279.9   0.005930926   0.05464   0.17507  -0.06976   0.13830
  11   36147.1    276.6   0.157542424   1.43483   0.64557   1.00137  -0.12379
  12   36853.8    271.3   0.024538511   0.21920  -0.45381  -0.11491   0.00725
  13   37026.5    270.1   0.191799759   1.70534   0.04634  -1.24741  -0.38360
  14   37943.4    263.6   0.075145697   0.65199   0.73097   0.26315  -0.22006
  15   38094.5    262.5   0.248981654   2.15170  -1.18496   0.79825   0.33223
  16   38847.2    257.4   0.107834520   0.91385  -0.78538   0.02283  -0.54452
  17   39301.0    254.4   0.269681350   2.25903  -1.40012  -0.21441  -0.50273
  18   39648.0    252.2   0.087889459   0.72978   0.76218   0.38262   0.04951
  19   40001.6    250.0   0.248180267   2.04251   0.82018  -0.59021   1.01068
  20   40295.9    248.2   0.078001163   0.63726   0.47682  -0.42098   0.48237

FINAL SINGLE POINT ENERGY     -3662.875145413802

DIPOLE MOMENT
-------------
                                X             Y             Z
Electronic contribution:    -41.64847     -19.63048     -19.39493
Nuclear contribution   :     43.34213      19.56903      19.82498
                        -----------------------------------------
Total Dipole Moment    :      1.69366      -0.06146       0.43005
                        -----------------------------------------
Magnitude (a.u.)       :      1.74849
Magnitude (Debye)      :      4.44430

Rotational constants in cm-1:     0.002738     0.000382     0.000354
Rotational constants in MHz :    82.071072    11.446456    10.610500

                             ****ORCA TERMINATED NORMALLY****
TOTAL RUN TIME: 0 days 0 hours 5 minutes 29 seconds 974 msec
