                         Program Version 4.2.0 -  RELEASE  -
|  1> # ORCA input file
|  2> # SCF done       -183.023364601552          0.000829228490
|  3> ! CAM-B3LYP def2-SVP def2/J RIJCOSX Grid4 TightSCF
|  4> %maxcore 5000
|  5> %tddft
|  6>     Mode sTDDFT
|  7>     Ethresh 5.0
|  8>     maxcore 5000
|  9> end
| 10>
| 11> %pal
| 12>   nprocs 6
| 13>   end
| 14> * xyz 0 1
| 15>    C        2.76590        -2.05322         1.41888
| 16>    O        1.56840        -1.93812         1.25262
| 17>    C        3.51917        -3.22093         1.85151
| 18>    C        4.90769        -2.88876         1.95803
| 19>    C        5.07894        -1.48296         1.64511
| 20>    C        6.17269        -0.73352         1.99447
| 21>    C        7.32793        -1.33181         2.53502
| 22>    N        8.28017        -1.81613         2.95449
| 23>    C        6.22764         0.67016         1.92307
| 24>    N        6.29907         1.81628         1.92000
| 25>    C        3.80035        -1.00672         1.15721
| 26>    C        3.43797         0.13492         0.51231
| 27>    C        4.22520         1.10114        -0.16335
| 28>    S        3.60994         2.75111        -0.13166
| 29>    C        4.90775         3.28370        -1.12729
| 30>    C        5.73021         2.21407        -1.50189
| 31>    C        5.35874         0.97626        -0.95481
| 32>    C        6.01623        -0.31265        -1.33953
| 33>    C        7.52300        -0.31588        -1.07983
| 34>    S        7.02287         2.69237        -2.57965
| 35>    C        6.45994         4.32419        -2.50028
| 36>    C        5.33708         4.49261        -1.68492
| 37>    N        4.95763         5.80638        -1.67474
| 38>    C        3.66318         6.16693        -1.14345
| 39>    C        5.82361         6.50705        -2.49832
| 40>    C        6.76419         5.58100        -3.03959
| 41>    C        7.72614         5.95861        -4.00168
| 42>    N        8.63346         5.20585        -4.60406
| 43>    S        9.43435         6.12370        -5.66967
| 44>    N        8.65318         7.51653        -5.40507
| 45>    C        7.73959         7.31226        -4.46901
| 46>    C        6.85385         8.24310        -3.88354
| 47>    C        5.93273         7.87769        -2.85765
| 48>    N        5.28179         9.02587        -2.43300
| 49>    C        4.57380         9.30234        -1.20158
| 50>    C        5.44873         9.03299         0.01973
| 51>    C        5.76362        10.07567        -3.16830
| 52>    C        6.72306         9.62381        -4.08188
| 53>    S        7.40604        10.87545        -5.05722
| 54>    C        6.39248        12.03610        -4.22977
| 55>    C        5.57387        11.45632        -3.25019
| 56>    S        4.60099        12.64344        -2.46640
| 57>    C        5.31688        13.91977        -3.45310
| 58>    C        6.23947        13.41776        -4.36533
| 59>    C        7.05241        14.25762        -5.29065
| 60>    C        8.20123        14.92785        -4.53281
| 61>    C        4.88283        15.25599        -3.35192
| 62>    C        4.24096        15.87608        -2.31949
| 63>    C        4.09600        15.50741        -0.92739
| 64>    C        4.97329        14.78239        -0.16065
| 65>    C        4.72774        14.53344         1.20249
| 66>    N        4.51923        14.29896         2.30704
| 67>    C        6.21242        14.30792        -0.63073
| 68>    N        7.25221        13.96155        -0.97431
| 69>    C        2.99192        16.28812        -0.40327
| 70>    C        2.61063        17.26816        -1.37906
| 71>    C        3.43284        17.09956        -2.58794
| 72>    O        3.43652        17.76077        -3.60108
| 73>    C        2.67613         6.50592        -2.25800
| 74>    C        1.61531        18.08439        -0.95144
| 75>    S        1.12243        17.66376         0.64820
| 76>    C        2.27583        16.38353         0.74821
| 77>    C        5.67831        -3.93385         2.35914
| 78>    S        4.72110        -5.34949         2.60931
| 79>    C        3.23274        -4.52443         2.17700
| 80>    C        1.98389        -5.19870         2.20107
| 81>    S        0.49687        -4.38670         1.79480
| 82>    C       -0.38397        -5.82654         2.07395
| 83>    C        0.40515        -6.87210         2.45644
| 84>    C        1.75719        -6.51749         2.53090
| 85>    H        2.36544         0.31243         0.48635
| 86>    H        5.85181        -0.46125        -2.41189
| 87>    H        5.54059        -1.14223        -0.81555
| 88>    H        8.02349         0.39820        -1.72789
| 89>    H        7.92844        -1.30497        -1.27843
| 90>    H        7.74927        -0.05051        -0.05052
| 91>    H        3.75698         6.97922        -0.42310
| 92>    H        3.29891         5.29470        -0.59523
| 93>    H        3.63774         8.74597        -1.16152
| 94>    H        4.31249        10.36322        -1.22700
| 95>    H        4.88929         9.23745         0.92852
| 96>    H        6.32155         9.68163         0.00007
| 97>    H        5.79271         8.00137         0.04052
| 98>    H        6.42526        15.02349        -5.75213
| 99>    H        7.45787        13.61795        -6.07687
|100>    H        7.81434        15.57174        -3.74659
|101>    H        8.79939        15.52572        -5.21523
|102>    H        8.83881        14.17665        -4.07407
|103>    H        4.99377        15.85797        -4.24940
|104>    H        3.04568         7.31849        -2.87946
|105>    H        1.71939         6.79453        -1.83124
|106>    H        2.52264         5.63686        -2.89358
|107>    H        1.14420        18.90057        -1.46124
|108>    H        2.33474        15.79165         1.63964
|109>    H        6.73710        -3.98191         2.51753
|110>    H       -1.44806        -5.82663         1.94051
|111>    H        0.03104        -7.85565         2.67672
|112>    H        2.54807        -7.19013         2.81313
|113> *
|114>
|115>                          ****END OF INPUT****

CARTESIAN COORDINATES (ANGSTROEM)
---------------------------------
  C      2.765900   -2.053220    1.418880
  O      1.568400   -1.938120    1.252620
  C      3.519170   -3.220930    1.851510
  C      4.907690   -2.888760    1.958030
  C      5.078940   -1.482960    1.645110
  C      6.172690   -0.733520    1.994470
  C      7.327930   -1.331810    2.535020
  N      8.280170   -1.816130    2.954490
  C      6.227640    0.670160    1.923070
  N      6.299070    1.816280    1.920000
  C      3.800350   -1.006720    1.157210
  C      3.437970    0.134920    0.512310
  C      4.225200    1.101140   -0.163350
  S      3.609940    2.751110   -0.131660
  C      4.907750    3.283700   -1.127290
  C      5.730210    2.214070   -1.501890
  C      5.358740    0.976260   -0.954810
  C      6.016230   -0.312650   -1.339530
  C      7.523000   -0.315880   -1.079830
  S      7.022870    2.692370   -2.579650
  C      6.459940    4.324190   -2.500280
  C      5.337080    4.492610   -1.684920
  N      4.957630    5.806380   -1.674740
  C      3.663180    6.166930   -1.143450
  C      5.823610    6.507050   -2.498320
  C      6.764190    5.581000   -3.039590
  C      7.726140    5.958610   -4.001680
  N      8.633460    5.205850   -4.604060
  S      9.434350    6.123700   -5.669670
  N      8.653180    7.516530   -5.405070
  C      7.739590    7.312260   -4.469010
  C      6.853850    8.243100   -3.883540
  C      5.932730    7.877690   -2.857650
  N      5.281790    9.025870   -2.433000
  C      4.573800    9.302340   -1.201580
  C      5.448730    9.032990    0.019730
  C      5.763620   10.075670   -3.168300
  C      6.723060    9.623810   -4.081880
  S      7.406040   10.875450   -5.057220
  C      6.392480   12.036100   -4.229770
  C      5.573870   11.456320   -3.250190
  S      4.600990   12.643440   -2.466400
  C      5.316880   13.919770   -3.453100
  C      6.239470   13.417760   -4.365330
  C      7.052410   14.257620   -5.290650
  C      8.201230   14.927850   -4.532810
  C      4.882830   15.255990   -3.351920
  C      4.240960   15.876080   -2.319490
  C      4.096000   15.507410   -0.927390
  C      4.973290   14.782390   -0.160650
  C      4.727740   14.533440    1.202490
  N      4.519230   14.298960    2.307040
  C      6.212420   14.307920   -0.630730
  N      7.252210   13.961550   -0.974310
  C      2.991920   16.288120   -0.403270
  C      2.610630   17.268160   -1.379060
  C      3.432840   17.099560   -2.587940
  O      3.436520   17.760770   -3.601080
  C      2.676130    6.505920   -2.258000
  C      1.615310   18.084390   -0.951440
  S      1.122430   17.663760    0.648200
  C      2.275830   16.383530    0.748210
  C      5.678310   -3.933850    2.359140
  S      4.721100   -5.349490    2.609310
  C      3.232740   -4.524430    2.177000
  C      1.983890   -5.198700    2.201070
  S      0.496870   -4.386700    1.794800
  C     -0.383970   -5.826540    2.073950
  C      0.405150   -6.872100    2.456440
  C      1.757190   -6.517490    2.530900
  H      2.365440    0.312430    0.486350
  H      5.851810   -0.461250   -2.411890
  H      5.540590   -1.142230   -0.815550
  H      8.023490    0.398200   -1.727890
  H      7.928440   -1.304970   -1.278430
  H      7.749270   -0.050510   -0.050520
  H      3.756980    6.979220   -0.423100
  H      3.298910    5.294700   -0.595230
  H      3.637740    8.745970   -1.161520
  H      4.312490   10.363220   -1.227000
  H      4.889290    9.237450    0.928520
  H      6.321550    9.681630    0.000070
  H      5.792710    8.001370    0.040520
  H      6.425260   15.023490   -5.752130
  H      7.457870   13.617950   -6.076870
  H      7.814340   15.571740   -3.746590
  H      8.799390   15.525720   -5.215230
  H      8.838810   14.176650   -4.074070
  H      4.993770   15.857970   -4.249400
  H      3.045680    7.318490   -2.879460
  H      1.719390    6.794530   -1.831240
  H      2.522640    5.636860   -2.893580
  H      1.144200   18.900570   -1.461240
  H      2.334740   15.791650    1.639640
  H      6.737100   -3.981910    2.517530
  H     -1.448060   -5.826630    1.940510
  H      0.031040   -7.855650    2.676720
  H      2.548070   -7.190130    2.813130

 Total Charge           Charge          ....    0
 Multiplicity           Mult            ....    1
 Number of Electrons    NEL             ....  540
 Basis Dimension        Dim             .... 1152

ORBITAL ENERGIES
----------------

  NO   OCC          E(Eh)            E(eV)
   0   2.0000     -89.005385     -2421.9597
   1   2.0000     -88.979452     -2421.2540
   2   2.0000     -88.979139     -2421.2455
   3   2.0000     -88.969684     -2420.9882
   4   2.0000     -88.967585     -2420.9311
   5   2.0000     -88.963818     -2420.8286
   6   2.0000     -88.961443     -2420.7639
   7   2.0000     -88.956224     -2420.6219
   8   2.0000     -19.212594      -522.8013
   9   2.0000     -19.208204      -522.6818
  10   2.0000     -14.484261      -394.1368
  11   2.0000     -14.484176      -394.1345
  12   2.0000     -14.428509      -392.6197
  13   2.0000     -14.428394      -392.6166
  14   2.0000     -14.413732      -392.2176
  15   2.0000     -14.412160      -392.1748
  16   2.0000     -14.411730      -392.1631
  17   2.0000     -14.408482      -392.0747
  18   2.0000     -10.366960      -282.0993
  19   2.0000     -10.364228      -282.0250
  20   2.0000     -10.340839      -281.3885
  21   2.0000     -10.339487      -281.3517
  22   2.0000     -10.339205      -281.3441
  23   2.0000     -10.338611      -281.3279
  24   2.0000     -10.337390      -281.2947
  25   2.0000     -10.335602      -281.2460
  26   2.0000     -10.335336      -281.2388
  27   2.0000     -10.335153      -281.2338
  28   2.0000     -10.333698      -281.1942
  29   2.0000     -10.321841      -280.8716
  30   2.0000     -10.321410      -280.8599
  31   2.0000     -10.319992      -280.8212
  32   2.0000     -10.318986      -280.7939
  33   2.0000     -10.318723      -280.7867
  34   2.0000     -10.318711      -280.7864
  35   2.0000     -10.317557      -280.7550
  36   2.0000     -10.317524      -280.7541
  37   2.0000     -10.317236      -280.7463
  38   2.0000     -10.316734      -280.7326
  39   2.0000     -10.316373      -280.7228
  40   2.0000     -10.315992      -280.7124
  41   2.0000     -10.314603      -280.6746
  42   2.0000     -10.313635      -280.6483
  43   2.0000     -10.313117      -280.6342
  44   2.0000     -10.311708      -280.5958
  45   2.0000     -10.311377      -280.5868
  46   2.0000     -10.309017      -280.5226
  47   2.0000     -10.307214      -280.4736
  48   2.0000     -10.306056      -280.4420
  49   2.0000     -10.304995      -280.4132
  50   2.0000     -10.304554      -280.4012
  51   2.0000     -10.304325      -280.3949
  52   2.0000     -10.301782      -280.3257
  53   2.0000     -10.300351      -280.2868
  54   2.0000     -10.299763      -280.2708
  55   2.0000     -10.296565      -280.1838
  56   2.0000     -10.293230      -280.0930
  57   2.0000     -10.290736      -280.0252
  58   2.0000     -10.290191      -280.0103
  59   2.0000     -10.289697      -279.9969
  60   2.0000     -10.287699      -279.9425
  61   2.0000     -10.286108      -279.8992
  62   2.0000     -10.284110      -279.8448
  63   2.0000     -10.283470      -279.8275
  64   2.0000     -10.282042      -279.7886
  65   2.0000     -10.281372      -279.7704
  66   2.0000     -10.278945      -279.7043
  67   2.0000     -10.274388      -279.5803
  68   2.0000     -10.262178      -279.2481
  69   2.0000     -10.259472      -279.1744
  70   2.0000      -8.097637      -220.3479
  71   2.0000      -8.075141      -219.7358
  72   2.0000      -8.074498      -219.7183
  73   2.0000      -8.063565      -219.4208
  74   2.0000      -8.062306      -219.3865
  75   2.0000      -8.057919      -219.2671
  76   2.0000      -8.055372      -219.1978
  77   2.0000      -8.051195      -219.0842
  78   2.0000      -6.069165      -165.1504
  79   2.0000      -6.061479      -164.9412
  80   2.0000      -6.059236      -164.8802
  81   2.0000      -6.044385      -164.4761
  82   2.0000      -6.043937      -164.4639
  83   2.0000      -6.039719      -164.3491
  84   2.0000      -6.039332      -164.3386
  85   2.0000      -6.037879      -164.2990
  86   2.0000      -6.036759      -164.2686
  87   2.0000      -6.033291      -164.1742
  88   2.0000      -6.032018      -164.1396
  89   2.0000      -6.029219      -164.0634
  90   2.0000      -6.027859      -164.0264
  91   2.0000      -6.027739      -164.0231
  92   2.0000      -6.025263      -163.9557
  93   2.0000      -6.024969      -163.9477
  94   2.0000      -6.023780      -163.9154
  95   2.0000      -6.023700      -163.9132
  96   2.0000      -6.021191      -163.8449
  97   2.0000      -6.020555      -163.8276
  98   2.0000      -6.018955      -163.7841
  99   2.0000      -6.016370      -163.7138
 100   2.0000      -6.015880      -163.7004
 101   2.0000      -6.013562      -163.6373
 102   2.0000      -1.128668       -30.7126
 103   2.0000      -1.124029       -30.5864
 104   2.0000      -1.116072       -30.3699
 105   2.0000      -1.108572       -30.1658
 106   2.0000      -1.101711       -29.9791
 107   2.0000      -1.022902       -27.8346
 108   2.0000      -1.020399       -27.7665
 109   2.0000      -1.012615       -27.5547
 110   2.0000      -1.011237       -27.5171
 111   2.0000      -1.005238       -27.3539
 112   2.0000      -1.001519       -27.2527
 113   2.0000      -0.991109       -26.9694
 114   2.0000      -0.988796       -26.9065
 115   2.0000      -0.983407       -26.7599
 116   2.0000      -0.970950       -26.4209
 117   2.0000      -0.966254       -26.2931
 118   2.0000      -0.960930       -26.1482
 119   2.0000      -0.958334       -26.0776
 120   2.0000      -0.949743       -25.8438
 121   2.0000      -0.942419       -25.6445
 122   2.0000      -0.909562       -24.7504
 123   2.0000      -0.900443       -24.5023
 124   2.0000      -0.898314       -24.4444
 125   2.0000      -0.896187       -24.3865
 126   2.0000      -0.896045       -24.3826
 127   2.0000      -0.889066       -24.1927
 128   2.0000      -0.877372       -23.8745
 129   2.0000      -0.873877       -23.7794
 130   2.0000      -0.868609       -23.6360
 131   2.0000      -0.857155       -23.3244
 132   2.0000      -0.845893       -23.0179
 133   2.0000      -0.837844       -22.7989
 134   2.0000      -0.832347       -22.6493
 135   2.0000      -0.828931       -22.5564
 136   2.0000      -0.825416       -22.4607
 137   2.0000      -0.817550       -22.2467
 138   2.0000      -0.804200       -21.8834
 139   2.0000      -0.801870       -21.8200
 140   2.0000      -0.799709       -21.7612
 141   2.0000      -0.795606       -21.6496
 142   2.0000      -0.778643       -21.1879
 143   2.0000      -0.759042       -20.6546
 144   2.0000      -0.758113       -20.6293
 145   2.0000      -0.752696       -20.4819
 146   2.0000      -0.750127       -20.4120
 147   2.0000      -0.742799       -20.2126
 148   2.0000      -0.721317       -19.6280
 149   2.0000      -0.716253       -19.4902
 150   2.0000      -0.712100       -19.3772
 151   2.0000      -0.711967       -19.3736
 152   2.0000      -0.694596       -18.9009
 153   2.0000      -0.691449       -18.8153
 154   2.0000      -0.689651       -18.7664
 155   2.0000      -0.684776       -18.6337
 156   2.0000      -0.679561       -18.4918
 157   2.0000      -0.666204       -18.1283
 158   2.0000      -0.664419       -18.0798
 159   2.0000      -0.661396       -17.9975
 160   2.0000      -0.651556       -17.7297
 161   2.0000      -0.648501       -17.6466
 162   2.0000      -0.647274       -17.6132
 163   2.0000      -0.635290       -17.2871
 164   2.0000      -0.631374       -17.1806
 165   2.0000      -0.625153       -17.0113
 166   2.0000      -0.617646       -16.8070
 167   2.0000      -0.613402       -16.6915
 168   2.0000      -0.611020       -16.6267
 169   2.0000      -0.602623       -16.3982
 170   2.0000      -0.599239       -16.3061
 171   2.0000      -0.594239       -16.1701
 172   2.0000      -0.590343       -16.0641
 173   2.0000      -0.589681       -16.0460
 174   2.0000      -0.588728       -16.0201
 175   2.0000      -0.573066       -15.5939
 176   2.0000      -0.570123       -15.5138
 177   2.0000      -0.566000       -15.4016
 178   2.0000      -0.559272       -15.2186
 179   2.0000      -0.556685       -15.1482
 180   2.0000      -0.554598       -15.0914
 181   2.0000      -0.549339       -14.9483
 182   2.0000      -0.542508       -14.7624
 183   2.0000      -0.540047       -14.6954
 184   2.0000      -0.538424       -14.6513
 185   2.0000      -0.536441       -14.5973
 186   2.0000      -0.534639       -14.5483
 187   2.0000      -0.532345       -14.4858
 188   2.0000      -0.527640       -14.3578
 189   2.0000      -0.524168       -14.2633
 190   2.0000      -0.523180       -14.2365
 191   2.0000      -0.522546       -14.2192
 192   2.0000      -0.518953       -14.1214
 193   2.0000      -0.516174       -14.0458
 194   2.0000      -0.512152       -13.9364
 195   2.0000      -0.508534       -13.8379
 196   2.0000      -0.506843       -13.7919
 197   2.0000      -0.502130       -13.6637
 198   2.0000      -0.501067       -13.6347
 199   2.0000      -0.495603       -13.4860
 200   2.0000      -0.495133       -13.4733
 201   2.0000      -0.493942       -13.4409
 202   2.0000      -0.492281       -13.3957
 203   2.0000      -0.489918       -13.3313
 204   2.0000      -0.485669       -13.2157
 205   2.0000      -0.484518       -13.1844
 206   2.0000      -0.483132       -13.1467
 207   2.0000      -0.480737       -13.0815
 208   2.0000      -0.480100       -13.0642
 209   2.0000      -0.477363       -12.9897
 210   2.0000      -0.475301       -12.9336
 211   2.0000      -0.474373       -12.9084
 212   2.0000      -0.471013       -12.8169
 213   2.0000      -0.468979       -12.7616
 214   2.0000      -0.465733       -12.6732
 215   2.0000      -0.464451       -12.6384
 216   2.0000      -0.463359       -12.6086
 217   2.0000      -0.460427       -12.5289
 218   2.0000      -0.459774       -12.5111
 219   2.0000      -0.455066       -12.3830
 220   2.0000      -0.454406       -12.3650
 221   2.0000      -0.452853       -12.3228
 222   2.0000      -0.450507       -12.2589
 223   2.0000      -0.447736       -12.1835
 224   2.0000      -0.446167       -12.1408
 225   2.0000      -0.445127       -12.1125
 226   2.0000      -0.443641       -12.0721
 227   2.0000      -0.442378       -12.0377
 228   2.0000      -0.441450       -12.0125
 229   2.0000      -0.439451       -11.9581
 230   2.0000      -0.436611       -11.8808
 231   2.0000      -0.435380       -11.8473
 232   2.0000      -0.432193       -11.7606
 233   2.0000      -0.427637       -11.6366
 234   2.0000      -0.425782       -11.5861
 235   2.0000      -0.424776       -11.5588
 236   2.0000      -0.423861       -11.5338
 237   2.0000      -0.421195       -11.4613
 238   2.0000      -0.420425       -11.4403
 239   2.0000      -0.417118       -11.3504
 240   2.0000      -0.416648       -11.3376
 241   2.0000      -0.414976       -11.2921
 242   2.0000      -0.413261       -11.2454
 243   2.0000      -0.410970       -11.1831
 244   2.0000      -0.406590       -11.0639
 245   2.0000      -0.405877       -11.0445
 246   2.0000      -0.404768       -11.0143
 247   2.0000      -0.400212       -10.8903
 248   2.0000      -0.390943       -10.6381
 249   2.0000      -0.390080       -10.6146
 250   2.0000      -0.389292       -10.5932
 251   2.0000      -0.366529        -9.9738
 252   2.0000      -0.362891        -9.8748
 253   2.0000      -0.360852        -9.8193
 254   2.0000      -0.355549        -9.6750
 255   2.0000      -0.344762        -9.3814
 256   2.0000      -0.334143        -9.0925
 257   2.0000      -0.333771        -9.0824
 258   2.0000      -0.333341        -9.0707
 259   2.0000      -0.331531        -9.0214
 260   2.0000      -0.323960        -8.8154
 261   2.0000      -0.319298        -8.6885
 262   2.0000      -0.315242        -8.5782
 263   2.0000      -0.310283        -8.4432
 264   2.0000      -0.303487        -8.2583
 265   2.0000      -0.285889        -7.7794
 266   2.0000      -0.278979        -7.5914
 267   2.0000      -0.274036        -7.4569
 268   2.0000      -0.271228        -7.3805
 269   2.0000      -0.236568        -6.4374
 270   0.0000      -0.094000        -2.5579
 271   0.0000      -0.085180        -2.3179
 272   0.0000      -0.051470        -1.4006
 273   0.0000      -0.045233        -1.2308
 274   0.0000      -0.037316        -1.0154

MULLIKEN ATOMIC CHARGES
-----------------------
   0 C :    0.131585
   1 O :   -0.166115
   2 C :   -0.000103
   3 C :    0.035422
   4 C :    0.250099
   5 C :   -0.346200
   6 C :   -0.183986
   7 N :    0.158125
   8 C :   -0.201165
   9 N :    0.180815
  10 C :   -0.132146
  11 C :    0.038327
  12 C :   -0.154965
  13 S :    0.138074
  14 C :   -0.027859
  15 C :   -0.102282
  16 C :   -0.025578
  17 C :    0.065230
  18 C :   -0.005398
  19 S :    0.183798
  20 C :   -0.097616
  21 C :    0.037188
  22 N :   -0.168220
  23 C :    0.100032
  24 C :    0.055520
  25 C :   -0.056162
  26 C :   -0.006603
  27 N :   -0.265396
  28 S :    0.469302
  29 N :   -0.263568
  30 C :   -0.014759
  31 C :   -0.055370
  32 C :    0.058651
  33 N :   -0.172111
  34 C :    0.098721
  35 C :   -0.000100
  36 C :    0.028464
  37 C :   -0.097725
  38 S :    0.196110
  39 C :   -0.100902
  40 C :   -0.030984
  41 S :    0.139403
  42 C :   -0.139162
  43 C :   -0.019412
  44 C :    0.062033
  45 C :    0.027161
  46 C :    0.025235
  47 C :   -0.166695
  48 C :    0.260024
  49 C :   -0.328723
  50 C :   -0.186091
  51 N :    0.144355
  52 C :   -0.196069
  53 N :    0.166349
  54 C :    0.016375
  55 C :    0.038484
  56 C :    0.155038
  57 O :   -0.146250
  58 C :    0.000605
  59 C :   -0.138313
  60 S :    0.148847
  61 C :   -0.134912
  62 C :   -0.136707
  63 S :    0.156772
  64 C :   -0.074087
  65 C :   -0.134544
  66 S :    0.188508
  67 C :   -0.063476
  68 C :    0.050940
  69 C :   -0.011722
  70 H :    0.031369
  71 H :    0.031394
  72 H :    0.012344
  73 H :    0.028052
  74 H :    0.021485
  75 H :    0.033711
  76 H :    0.024264
  77 H :    0.029843
  78 H :    0.017092
  79 H :    0.027691
  80 H :    0.034694
  81 H :    0.041989
  82 H :    0.036481
  83 H :    0.021481
  84 H :    0.010691
  85 H :    0.025383
  86 H :    0.021727
  87 H :    0.029587
  88 H :    0.020101
  89 H :    0.035091
  90 H :    0.030113
  91 H :    0.032401
  92 H :    0.039215
  93 H :    0.047163
  94 H :    0.047361
  95 H :    0.031157
  96 H :   -0.009830
  97 H :   -0.006162
Sum of atomic charges:    0.0000000

LOEWDIN ATOMIC CHARGES
----------------------
   0 C :    0.076471
   1 O :   -0.160955
   2 C :   -0.108101
   3 C :   -0.058115
   4 C :    0.064316
   5 C :   -0.142676
   6 C :   -0.018118
   7 N :   -0.055705
   8 C :   -0.022470
   9 N :   -0.045450
  10 C :   -0.095826
  11 C :    0.045218
  12 C :   -0.183518
  13 S :    0.429059
  14 C :   -0.193456
  15 C :   -0.186443
  16 C :   -0.024974
  17 C :   -0.029733
  18 C :   -0.050630
  19 S :    0.436177
  20 C :   -0.176355
  21 C :   -0.037592
  22 N :    0.043690
  23 C :    0.040943
  24 C :    0.005733
  25 C :   -0.072632
  26 C :   -0.054988
  27 N :   -0.287586
  28 S :    0.602860
  29 N :   -0.288304
  30 C :   -0.055576
  31 C :   -0.076124
  32 C :    0.011710
  33 N :    0.039457
  34 C :    0.040286
  35 C :   -0.059363
  36 C :   -0.040848
  37 C :   -0.169747
  38 S :    0.432331
  39 C :   -0.194853
  40 C :   -0.185340
  41 S :    0.441609
  42 C :   -0.188333
  43 C :   -0.006242
  44 C :   -0.028037
  45 C :   -0.041296
  46 C :    0.052033
  47 C :   -0.112174
  48 C :    0.061983
  49 C :   -0.154884
  50 C :   -0.018367
  51 N :   -0.063045
  52 C :   -0.035717
  53 N :   -0.057518
  54 C :   -0.060681
  55 C :   -0.091009
  56 C :    0.080689
  57 O :   -0.148995
  58 C :   -0.060782
  59 C :   -0.141849
  60 S :    0.477852
  61 C :   -0.156878
  62 C :   -0.153613
  63 S :    0.469210
  64 C :   -0.130928
  65 C :   -0.205678
  66 S :    0.497422
  67 C :   -0.179275
  68 C :   -0.066413
  69 C :   -0.052129
  70 H :    0.045717
  71 H :    0.040517
  72 H :    0.030241
  73 H :    0.017422
  74 H :    0.030631
  75 H :    0.028821
  76 H :    0.024886
  77 H :    0.026672
  78 H :    0.022305
  79 H :    0.025993
  80 H :    0.036372
  81 H :    0.039180
  82 H :    0.028369
  83 H :    0.034989
  84 H :    0.029417
  85 H :    0.027783
  86 H :    0.026938
  87 H :    0.032045
  88 H :    0.047943
  89 H :    0.027647
  90 H :    0.033998
  91 H :    0.035227
  92 H :    0.035246
  93 H :    0.034630
  94 H :    0.035519
  95 H :    0.025174
  96 H :    0.030518
  97 H :    0.026072

  Mayer bond orders larger than 0.100000
B(  0-C ,  1-O ) :   2.1773 B(  0-C ,  2-C ) :   0.9563 B(  0-C , 10-C ) :   0.9649
B(  2-C ,  3-C ) :   1.2019 B(  2-C , 64-C ) :   1.4841 B(  3-C ,  4-C ) :   0.9951
B(  3-C , 62-C ) :   1.5617 B(  4-C ,  5-C ) :   1.6527 B(  4-C , 10-C ) :   1.0575
B(  5-C ,  6-C ) :   1.1324 B(  5-C ,  8-C ) :   1.1678 B(  6-C ,  7-N ) :   2.9984
B(  8-C ,  9-N ) :   2.9970 B( 10-C , 11-C ) :   1.6783 B( 11-C , 12-C ) :   1.0940
B( 11-C , 70-H ) :   0.9258 B( 12-C , 13-S ) :   1.0465 B( 12-C , 16-C ) :   1.5006
B( 13-S , 14-C ) :   1.0672 B( 14-C , 15-C ) :   1.4609 B( 14-C , 21-C ) :   1.2665
B( 15-C , 16-C ) :   1.3270 B( 15-C , 19-S ) :   1.0397 B( 16-C , 17-C ) :   1.0813
B( 17-C , 18-C ) :   1.0862 B( 17-C , 71-H ) :   0.9221 B( 17-C , 72-H ) :   0.9180
B( 18-C , 73-H ) :   0.9617 B( 18-C , 74-H ) :   0.9628 B( 18-C , 75-H ) :   0.9680
B( 19-S , 20-C ) :   1.0210 B( 20-C , 21-C ) :   1.4187 B( 20-C , 25-C ) :   1.3508
B( 21-C , 22-N ) :   1.1509 B( 21-C , 24-C ) :   0.1083 B( 22-N , 23-C ) :   0.9565
B( 22-N , 24-C ) :   1.1631 B( 23-C , 58-C ) :   1.1124 B( 23-C , 76-H ) :   0.9420
B( 23-C , 77-H ) :   0.9379 B( 24-C , 25-C ) :   1.3918 B( 24-C , 32-C ) :   1.1369
B( 25-C , 26-C ) :   1.1100 B( 25-C , 31-C ) :   0.1035 B( 26-C , 27-N ) :   1.6266
B( 26-C , 30-C ) :   1.1437 B( 27-N , 28-S ) :   1.2253 B( 27-N , 29-N ) :   0.1312
B( 28-S , 29-N ) :   1.2234 B( 29-N , 30-C ) :   1.6317 B( 30-C , 31-C ) :   1.1081
B( 31-C , 32-C ) :   1.3922 B( 31-C , 37-C ) :   1.3491 B( 32-C , 33-N ) :   1.1630
B( 32-C , 36-C ) :   0.1042 B( 33-N , 34-C ) :   0.9523 B( 33-N , 36-C ) :   1.1451
B( 34-C , 35-C ) :   1.1147 B( 34-C , 78-H ) :   0.9413 B( 34-C , 79-H ) :   0.9372
B( 35-C , 80-H ) :   0.9642 B( 35-C , 81-H ) :   0.9599 B( 35-C , 82-H ) :   0.9621
B( 36-C , 37-C ) :   1.4092 B( 36-C , 40-C ) :   1.2952 B( 37-C , 38-S ) :   1.0276
B( 38-S , 39-C ) :   1.0273 B( 39-C , 40-C ) :   1.4378 B( 39-C , 43-C ) :   1.3743
B( 40-C , 41-S ) :   1.0680 B( 41-S , 42-C ) :   1.0453 B( 42-C , 43-C ) :   1.4307
B( 42-C , 46-C ) :   1.1852 B( 43-C , 44-C ) :   1.0899 B( 44-C , 45-C ) :   1.1009
B( 44-C , 83-H ) :   0.9079 B( 44-C , 84-H ) :   0.9211 B( 45-C , 85-H ) :   0.9689
B( 45-C , 86-H ) :   0.9666 B( 45-C , 87-H ) :   0.9670 B( 46-C , 47-C ) :   1.6121
B( 46-C , 88-H ) :   0.9351 B( 47-C , 48-C ) :   1.0551 B( 47-C , 56-C ) :   0.9487
B( 48-C , 49-C ) :   1.6411 B( 48-C , 54-C ) :   1.0101 B( 49-C , 50-C ) :   1.1434
B( 49-C , 52-C ) :   1.1553 B( 50-C , 51-N ) :   3.0004 B( 52-C , 53-N ) :   2.9995
B( 54-C , 55-C ) :   1.2232 B( 54-C , 61-C ) :   1.5473 B( 55-C , 56-C ) :   0.9269
B( 55-C , 59-C ) :   1.5526 B( 56-C , 57-O ) :   2.2573 B( 58-C , 89-H ) :   0.9626
B( 58-C , 90-H ) :   0.9643 B( 58-C , 91-H ) :   0.9604 B( 59-C , 60-S ) :   1.1863
B( 59-C , 92-H ) :   0.9705 B( 60-S , 61-C ) :   1.1705 B( 61-C , 93-H ) :   0.9581
B( 62-C , 63-S ) :   1.1382 B( 62-C , 94-H ) :   0.9584 B( 63-S , 64-C ) :   1.1515
B( 64-C , 65-C ) :   1.1797 B( 65-C , 66-S ) :   1.1576 B( 65-C , 69-C ) :   1.4769
B( 66-S , 67-C ) :   1.1781 B( 67-C , 68-C ) :   1.5372 B( 67-C , 95-H ) :   0.9724
B( 68-C , 69-C ) :   1.2897 B( 68-C , 96-H ) :   0.9941 B( 69-C , 97-H ) :   0.9932

-----------------------------------------------------------------------------
         ABSORPTION SPECTRUM VIA TRANSITION ELECTRIC DIPOLE MOMENTS
-----------------------------------------------------------------------------
State   Energy  Wavelength   fosc         T2         TX        TY        TZ
        (cm-1)    (nm)                  (au**2)     (au)      (au)      (au)
-----------------------------------------------------------------------------
   0   16131.7    619.9   1.506748545  30.74946  -0.34874   5.51852  -0.41685
   1   18814.5    531.5   0.416885443   7.29458  -0.97056  -0.40106   2.48832
   2   23574.6    424.2   0.051004501   0.71226   0.66016  -0.40020  -0.34102
   3   24198.4    413.2   0.016382909   0.22288  -0.43052  -0.16176   0.10665
   4   24664.2    405.4   0.052920640   0.70637   0.69780  -0.33187  -0.33061
   5   25742.8    388.5   0.469770018   6.00766   0.58910   2.15255  -1.01348
   6   26269.5    380.7   0.192103441   2.40746  -0.19621  -0.34837   1.49920
   7   27332.5    365.9   0.124347661   1.49773   0.99754   0.53609  -0.46396
   8   28070.7    356.2   0.029784150   0.34931   0.16986  -0.56068  -0.07803
   9   28425.1    351.8   0.008852570   0.10253   0.28084   0.12977  -0.08258
  10   28891.4    346.1   0.010566710   0.12041   0.05693   0.29843  -0.16765
  11   29451.6    339.5   0.050354515   0.56287   0.00560  -0.74315  -0.10276
  12   29580.7    338.1   0.156523638   1.74200   1.00025  -0.85407  -0.10989
  13   30444.7    328.5   0.015329724   0.16577  -0.34914   0.11610   0.17432
  14   30625.5    326.5   0.359969227   3.86952   1.29609   1.47959   0.02155
  15   31479.8    317.7   0.252703683   2.64274   1.06588  -1.20679  -0.22430
  16   32636.3    306.4   0.574027540   5.79038   1.60248   1.76264  -0.33995
  17   32967.3    303.3   0.028283389   0.28244  -0.47941   0.19030  -0.12804
  18   33447.8    299.0   0.262830461   2.58692  -0.77589  -1.03648   0.95426
  19   33877.2    295.2   0.149839230   1.45611   0.63567  -0.69818  -0.75139
  20   33992.0    294.2   0.033884149   0.32817  -0.21808   0.24725   0.46848
  21   34314.6    291.4   0.075106591   0.72057  -0.79061  -0.07258   0.30039
  22   34596.6    289.0   0.022449664   0.21362   0.38824  -0.25018   0.01744
  23   34763.3    287.7   0.007976690   0.07554   0.26228  -0.05085   0.06452
  24   35043.5    285.4   0.014480836   0.13604   0.08957  -0.24306  -0.26256
  25   35238.0    283.8   0.114945395   1.07388  -0.75452   0.62530  -0.33702
  26   35454.3    282.1   0.020635688   0.19161   0.01996   0.26900   0.34475
  27   35765.8    279.6   0.040113253   0.36923   0.17758   0.51674  -0.26585
  28   35957.8    278.1   0.066319283   0.60719  -0.28703   0.71425   0.12101
  29   36116.9    276.9   0.018664010   0.17013   0.30562  -0.01120  -0.27676
  30   36588.2    273.3   0.048547803   0.43682  -0.44253   0.47071   0.13934
  31   36905.6    271.0   0.233967570   2.08708   0.45533  -1.36699   0.10537
  32   37104.5    269.5   0.015693948   0.13925  -0.07951  -0.11735   0.34519
  33   37321.2    267.9   0.030969769   0.27319  -0.10627  -0.37072   0.35279
  34   38523.0    259.6   0.025339941   0.21655   0.08587   0.43478  -0.14193
  35   39038.7    256.2   0.071744102   0.60502   0.73793  -0.24576   0.00902
  36   39120.3    255.6   0.231792841   1.95062   1.11796  -0.78424  -0.29281
  37   39630.8    252.3   0.285067428   2.36805   1.51673   0.25665   0.04137
  38   39726.5    251.7   0.107445805   0.89040   0.67520   0.64007  -0.15753
  39   39908.8    250.6   0.260709603   2.15062   0.73638  -1.14983   0.53502

FINAL SINGLE POINT ENERGY     -5768.043859048352

DIPOLE MOMENT
-------------
                                X             Y             Z
Electronic contribution:      3.23991      -5.95102       3.26198
Nuclear contribution   :     -6.05539       4.79443      -4.37196
                        -----------------------------------------
Total Dipole Moment    :     -2.81548      -1.15659      -1.10998
                        -----------------------------------------
Magnitude (a.u.)       :      3.23986
Magnitude (Debye)      :      8.23507

Rotational constants in cm-1:     0.001702     0.000270     0.000246
Rotational constants in MHz :    51.024695     8.098984     7.365000

                             ****ORCA TERMINATED NORMALLY****
TOTAL RUN TIME: 0 days 0 hours 10 minutes 33 seconds 232 msec
