                         Program Version 4.2.0 -  RELEASE  -
|  1> # ORCA input file
|  2> # SCF done       -183.036351702168          0.000649954593
|  3> ! CAM-B3LYP def2-SVP def2/J RIJCOSX Grid4 TightSCF
|  4> %maxcore 5000
|  5> %tddft
|  6>     Mode sTDDFT
|  7>     Ethresh 5.0
|  8>     maxcore 5000
|  9> end
| 10>
| 11> %pal
| 12>   nprocs 6
| 13>   end
| 14> * xyz 0 1
| 15>    C        4.56005        -0.31593        -2.49415
| 16>    O        4.56146        -1.50824        -2.23499
| 17>    C        3.98051         0.34129        -3.65259
| 18>    C        4.18265         1.71628        -3.60523
| 19>    C        4.91803         2.03527        -2.39384
| 20>    C        5.29682         3.30287        -2.03265
| 21>    C        4.99198         4.42172        -2.83591
| 22>    N        4.75645         5.34705        -3.47253
| 23>    C        6.00887         3.65699        -0.87068
| 24>    N        6.58620         4.01686         0.05551
| 25>    C        5.14814         0.78082        -1.70028
| 26>    C        5.80146         0.66076        -0.50082
| 27>    C        6.09411        -0.46326         0.28086
| 28>    S        5.67822        -2.12161        -0.15059
| 29>    C        6.39264        -2.69389         1.30877
| 30>    C        6.92265        -1.64613         2.08043
| 31>    C        6.76448        -0.38802         1.51319
| 32>    C        7.20820         0.86657         2.19187
| 33>    C        6.05280         1.49835         2.97322
| 34>    S        7.66739        -2.18242         3.57588
| 35>    C        7.26526        -3.81075         3.15374
| 36>    C        6.58470        -3.92789         1.93683
| 37>    N        6.32553        -5.24477         1.67332
| 38>    C        5.79948        -5.60259         0.37587
| 39>    C        6.81956        -6.00035         2.71935
| 40>    C        7.44065        -5.10843         3.64761
| 41>    C        8.14881        -5.56618         4.78043
| 42>    N        8.78764        -4.85757         5.69785
| 43>    S        9.48193        -5.88124         6.74286
| 44>    N        8.99138        -7.26751         6.06466
| 45>    C        8.26630        -6.97630         4.99633
| 46>    C        7.59040        -7.85647         4.12292
| 47>    C        6.81734        -7.39327         3.01350
| 48>    N        6.19042        -8.48762         2.44943
| 49>    C        5.15662        -8.61337         1.44790
| 50>    C        5.69792        -9.17535         0.13354
| 51>    C        6.56772        -9.60338         3.14505
| 52>    C        7.44149        -9.24667         4.17834
| 53>    S        7.95544       -10.57999         5.15208
| 54>    C        6.95979       -11.63784         4.16849
| 55>    C        6.27633       -10.97040         3.13733
| 56>    S        5.29362       -12.04505         2.21642
| 57>    C        5.80285       -13.39825         3.22723
| 58>    C        6.71073       -13.00260         4.22435
| 59>    C        7.29976       -13.88834         5.27299
| 60>    C        6.34482       -14.03201         6.46122
| 61>    C        5.34989       -14.71450         3.08724
| 62>    C        4.45223       -15.27477         2.21442
| 63>    C        4.05456       -16.67165         2.22265
| 64>    C        4.47166       -17.68141         3.05191
| 65>    C        3.97253       -18.99458         2.92451
| 66>    N        3.58096       -20.07021         2.84029
| 67>    C        5.40735       -17.56526         4.09766
| 68>    N        6.16129       -17.54383         4.96476
| 69>    C        3.08506       -16.83756         1.15492
| 70>    C        2.90270       -15.61573         0.52242
| 71>    C        3.73126       -14.58159         1.13087
| 72>    O        3.81368       -13.40871         0.81010
| 73>    C        4.29436        -5.35396         0.27677
| 74>    S        1.77409       -15.70540        -0.75748
| 75>    C        1.54608       -17.38512        -0.44046
| 76>    C        2.29661       -17.86064         0.59415
| 77>    C        3.63523         2.38804        -4.70327
| 78>    C        3.01969         1.51616        -5.57851
| 79>    S        3.11748        -0.14737        -5.04533
| 80>    C        2.35366         1.83948        -6.79587
| 81>    S        2.22778         3.48967        -7.33760
| 82>    C        1.36106         2.99685        -8.73198
| 83>    C        1.17797         1.64885        -8.78271
| 84>    C        1.74186         0.98507        -7.68127
| 85>    H        6.15465         1.58667        -0.06676
| 86>    H        7.59551         1.58817         1.47118
| 87>    H        8.01089         0.61233         2.88690
| 88>    H        5.23436         1.75949         2.30633
| 89>    H        6.39441         2.40239         3.46899
| 90>    H        5.68147         0.80556         3.72480
| 91>    H        6.05608        -6.63455         0.15461
| 92>    H        6.30051        -4.96869        -0.36363
| 93>    H        4.66884        -7.65339         1.30817
| 94>    H        4.41009        -9.31345         1.83815
| 95>    H        4.92130        -9.14326        -0.62504
| 96>    H        6.00061       -10.21018         0.26640
| 97>    H        6.56089        -8.61365        -0.21877
| 98>    H        8.23074       -13.43427         5.61815
| 99>    H        7.52937       -14.87590         4.87059
|100>    H        6.13724       -13.05831         6.89876
|101>    H        6.79335       -14.66797         7.21884
|102>    H        5.40494       -14.48055         6.14796
|103>    H        5.78317       -15.39364         3.80942
|104>    H        3.75597        -5.80933         1.10568
|105>    H        3.91734        -5.76129        -0.65683
|106>    H        4.09017        -4.28711         0.28814
|107>    H        0.85643       -17.93695        -1.04876
|108>    H        2.27708       -18.88217         0.92533
|109>    H        3.67266         3.44871        -4.87141
|110>    H        1.03612         3.73705        -9.43580
|111>    H        0.65802         1.14859        -9.57950
|112>    H        1.70581        -0.07979        -7.53431
|113> *
|114>
|115>                          ****END OF INPUT****

CARTESIAN COORDINATES (ANGSTROEM)
---------------------------------
  C      4.560050   -0.315930   -2.494150
  O      4.561460   -1.508240   -2.234990
  C      3.980510    0.341290   -3.652590
  C      4.182650    1.716280   -3.605230
  C      4.918030    2.035270   -2.393840
  C      5.296820    3.302870   -2.032650
  C      4.991980    4.421720   -2.835910
  N      4.756450    5.347050   -3.472530
  C      6.008870    3.656990   -0.870680
  N      6.586200    4.016860    0.055510
  C      5.148140    0.780820   -1.700280
  C      5.801460    0.660760   -0.500820
  C      6.094110   -0.463260    0.280860
  S      5.678220   -2.121610   -0.150590
  C      6.392640   -2.693890    1.308770
  C      6.922650   -1.646130    2.080430
  C      6.764480   -0.388020    1.513190
  C      7.208200    0.866570    2.191870
  C      6.052800    1.498350    2.973220
  S      7.667390   -2.182420    3.575880
  C      7.265260   -3.810750    3.153740
  C      6.584700   -3.927890    1.936830
  N      6.325530   -5.244770    1.673320
  C      5.799480   -5.602590    0.375870
  C      6.819560   -6.000350    2.719350
  C      7.440650   -5.108430    3.647610
  C      8.148810   -5.566180    4.780430
  N      8.787640   -4.857570    5.697850
  S      9.481930   -5.881240    6.742860
  N      8.991380   -7.267510    6.064660
  C      8.266300   -6.976300    4.996330
  C      7.590400   -7.856470    4.122920
  C      6.817340   -7.393270    3.013500
  N      6.190420   -8.487620    2.449430
  C      5.156620   -8.613370    1.447900
  C      5.697920   -9.175350    0.133540
  C      6.567720   -9.603380    3.145050
  C      7.441490   -9.246670    4.178340
  S      7.955440  -10.579990    5.152080
  C      6.959790  -11.637840    4.168490
  C      6.276330  -10.970400    3.137330
  S      5.293620  -12.045050    2.216420
  C      5.802850  -13.398250    3.227230
  C      6.710730  -13.002600    4.224350
  C      7.299760  -13.888340    5.272990
  C      6.344820  -14.032010    6.461220
  C      5.349890  -14.714500    3.087240
  C      4.452230  -15.274770    2.214420
  C      4.054560  -16.671650    2.222650
  C      4.471660  -17.681410    3.051910
  C      3.972530  -18.994580    2.924510
  N      3.580960  -20.070210    2.840290
  C      5.407350  -17.565260    4.097660
  N      6.161290  -17.543830    4.964760
  C      3.085060  -16.837560    1.154920
  C      2.902700  -15.615730    0.522420
  C      3.731260  -14.581590    1.130870
  O      3.813680  -13.408710    0.810100
  C      4.294360   -5.353960    0.276770
  S      1.774090  -15.705400   -0.757480
  C      1.546080  -17.385120   -0.440460
  C      2.296610  -17.860640    0.594150
  C      3.635230    2.388040   -4.703270
  C      3.019690    1.516160   -5.578510
  S      3.117480   -0.147370   -5.045330
  C      2.353660    1.839480   -6.795870
  S      2.227780    3.489670   -7.337600
  C      1.361060    2.996850   -8.731980
  C      1.177970    1.648850   -8.782710
  C      1.741860    0.985070   -7.681270
  H      6.154650    1.586670   -0.066760
  H      7.595510    1.588170    1.471180
  H      8.010890    0.612330    2.886900
  H      5.234360    1.759490    2.306330
  H      6.394410    2.402390    3.468990
  H      5.681470    0.805560    3.724800
  H      6.056080   -6.634550    0.154610
  H      6.300510   -4.968690   -0.363630
  H      4.668840   -7.653390    1.308170
  H      4.410090   -9.313450    1.838150
  H      4.921300   -9.143260   -0.625040
  H      6.000610  -10.210180    0.266400
  H      6.560890   -8.613650   -0.218770
  H      8.230740  -13.434270    5.618150
  H      7.529370  -14.875900    4.870590
  H      6.137240  -13.058310    6.898760
  H      6.793350  -14.667970    7.218840
  H      5.404940  -14.480550    6.147960
  H      5.783170  -15.393640    3.809420
  H      3.755970   -5.809330    1.105680
  H      3.917340   -5.761290   -0.656830
  H      4.090170   -4.287110    0.288140
  H      0.856430  -17.936950   -1.048760
  H      2.277080  -18.882170    0.925330
  H      3.672660    3.448710   -4.871410
  H      1.036120    3.737050   -9.435800
  H      0.658020    1.148590   -9.579500
  H      1.705810   -0.079790   -7.534310

 Total Charge           Charge          ....    0
 Multiplicity           Mult            ....    1
 Number of Electrons    NEL             ....  540
 Basis Dimension        Dim             .... 1152

ORBITAL ENERGIES
----------------

  NO   OCC          E(Eh)            E(eV)
   0   2.0000     -89.004450     -2421.9342
   1   2.0000     -88.987485     -2421.4726
   2   2.0000     -88.986035     -2421.4331
   3   2.0000     -88.966473     -2420.9008
   4   2.0000     -88.964575     -2420.8492
   5   2.0000     -88.963265     -2420.8135
   6   2.0000     -88.961477     -2420.7649
   7   2.0000     -88.960752     -2420.7451
   8   2.0000     -19.221336      -523.0391
   9   2.0000     -19.218425      -522.9599
  10   2.0000     -14.485203      -394.1624
  11   2.0000     -14.484684      -394.1483
  12   2.0000     -14.427977      -392.6052
  13   2.0000     -14.427899      -392.6031
  14   2.0000     -14.419977      -392.3875
  15   2.0000     -14.419575      -392.3766
  16   2.0000     -14.412691      -392.1892
  17   2.0000     -14.412439      -392.1824
  18   2.0000     -10.377519      -282.3866
  19   2.0000     -10.375206      -282.3237
  20   2.0000     -10.343352      -281.4569
  21   2.0000     -10.342634      -281.4374
  22   2.0000     -10.341543      -281.4077
  23   2.0000     -10.341219      -281.3989
  24   2.0000     -10.341162      -281.3973
  25   2.0000     -10.340561      -281.3810
  26   2.0000     -10.333596      -281.1914
  27   2.0000     -10.333321      -281.1840
  28   2.0000     -10.333167      -281.1798
  29   2.0000     -10.323008      -280.9033
  30   2.0000     -10.322569      -280.8914
  31   2.0000     -10.320201      -280.8270
  32   2.0000     -10.318907      -280.7917
  33   2.0000     -10.318734      -280.7870
  34   2.0000     -10.318287      -280.7749
  35   2.0000     -10.317077      -280.7419
  36   2.0000     -10.316278      -280.7202
  37   2.0000     -10.315988      -280.7123
  38   2.0000     -10.315959      -280.7115
  39   2.0000     -10.315765      -280.7062
  40   2.0000     -10.315712      -280.7048
  41   2.0000     -10.313798      -280.6527
  42   2.0000     -10.313451      -280.6433
  43   2.0000     -10.311873      -280.6003
  44   2.0000     -10.311848      -280.5996
  45   2.0000     -10.310990      -280.5763
  46   2.0000     -10.309871      -280.5459
  47   2.0000     -10.309055      -280.5236
  48   2.0000     -10.308435      -280.5068
  49   2.0000     -10.305586      -280.4292
  50   2.0000     -10.304071      -280.3880
  51   2.0000     -10.303946      -280.3846
  52   2.0000     -10.303894      -280.3832
  53   2.0000     -10.303492      -280.3723
  54   2.0000     -10.303138      -280.3626
  55   2.0000     -10.302437      -280.3436
  56   2.0000     -10.297225      -280.2017
  57   2.0000     -10.295244      -280.1478
  58   2.0000     -10.294053      -280.1154
  59   2.0000     -10.293457      -280.0992
  60   2.0000     -10.289408      -279.9890
  61   2.0000     -10.289277      -279.9855
  62   2.0000     -10.287256      -279.9305
  63   2.0000     -10.282638      -279.8048
  64   2.0000     -10.281393      -279.7709
  65   2.0000     -10.280843      -279.7560
  66   2.0000     -10.280673      -279.7513
  67   2.0000     -10.279645      -279.7234
  68   2.0000     -10.261112      -279.2191
  69   2.0000     -10.260670      -279.2070
  70   2.0000      -8.096699      -220.3224
  71   2.0000      -8.082387      -219.9329
  72   2.0000      -8.080661      -219.8860
  73   2.0000      -8.062267      -219.3854
  74   2.0000      -8.057068      -219.2440
  75   2.0000      -8.055672      -219.2060
  76   2.0000      -8.055605      -219.2041
  77   2.0000      -8.054792      -219.1820
  78   2.0000      -6.068253      -165.1256
  79   2.0000      -6.060566      -164.9164
  80   2.0000      -6.058254      -164.8535
  81   2.0000      -6.051540      -164.6708
  82   2.0000      -6.049899      -164.6261
  83   2.0000      -6.047143      -164.5511
  84   2.0000      -6.045703      -164.5120
  85   2.0000      -6.045154      -164.4970
  86   2.0000      -6.043027      -164.4391
  87   2.0000      -6.031594      -164.1280
  88   2.0000      -6.027203      -164.0085
  89   2.0000      -6.026908      -164.0005
  90   2.0000      -6.025528      -163.9629
  91   2.0000      -6.025496      -163.9621
  92   2.0000      -6.024680      -163.9399
  93   2.0000      -6.024522      -163.9356
  94   2.0000      -6.022284      -163.8747
  95   2.0000      -6.021507      -163.8535
  96   2.0000      -6.020876      -163.8364
  97   2.0000      -6.020710      -163.8318
  98   2.0000      -6.018678      -163.7766
  99   2.0000      -6.017291      -163.7388
 100   2.0000      -6.016521      -163.7179
 101   2.0000      -6.015726      -163.6962
 102   2.0000      -1.137946       -30.9651
 103   2.0000      -1.135092       -30.8874
 104   2.0000      -1.116053       -30.3694
 105   2.0000      -1.108168       -30.1548
 106   2.0000      -1.102175       -29.9917
 107   2.0000      -1.027040       -27.9472
 108   2.0000      -1.026187       -27.9240
 109   2.0000      -1.011124       -27.5141
 110   2.0000      -1.010081       -27.4857
 111   2.0000      -1.009220       -27.4623
 112   2.0000      -1.007823       -27.4243
 113   2.0000      -0.994572       -27.0637
 114   2.0000      -0.994333       -27.0572
 115   2.0000      -0.991460       -26.9790
 116   2.0000      -0.970532       -26.4095
 117   2.0000      -0.966409       -26.2973
 118   2.0000      -0.963194       -26.2098
 119   2.0000      -0.960821       -26.1453
 120   2.0000      -0.949974       -25.8501
 121   2.0000      -0.942521       -25.6473
 122   2.0000      -0.910973       -24.7888
 123   2.0000      -0.903319       -24.5806
 124   2.0000      -0.900933       -24.5156
 125   2.0000      -0.895303       -24.3624
 126   2.0000      -0.893792       -24.3213
 127   2.0000      -0.890558       -24.2333
 128   2.0000      -0.880892       -23.9703
 129   2.0000      -0.875403       -23.8209
 130   2.0000      -0.860584       -23.4177
 131   2.0000      -0.856000       -23.2929
 132   2.0000      -0.853529       -23.2257
 133   2.0000      -0.845422       -23.0051
 134   2.0000      -0.838581       -22.8189
 135   2.0000      -0.834933       -22.7197
 136   2.0000      -0.829812       -22.5803
 137   2.0000      -0.825932       -22.4748
 138   2.0000      -0.811555       -22.0835
 139   2.0000      -0.798207       -21.7203
 140   2.0000      -0.795888       -21.6572
 141   2.0000      -0.790746       -21.5173
 142   2.0000      -0.772922       -21.0323
 143   2.0000      -0.765426       -20.8283
 144   2.0000      -0.762655       -20.7529
 145   2.0000      -0.755104       -20.5474
 146   2.0000      -0.748137       -20.3579
 147   2.0000      -0.743129       -20.2216
 148   2.0000      -0.723119       -19.6771
 149   2.0000      -0.719544       -19.5798
 150   2.0000      -0.715370       -19.4662
 151   2.0000      -0.712279       -19.3821
 152   2.0000      -0.699419       -19.0322
 153   2.0000      -0.694571       -18.9002
 154   2.0000      -0.685666       -18.6579
 155   2.0000      -0.684482       -18.6257
 156   2.0000      -0.675893       -18.3920
 157   2.0000      -0.668245       -18.1839
 158   2.0000      -0.664302       -18.0766
 159   2.0000      -0.657025       -17.8786
 160   2.0000      -0.652762       -17.7625
 161   2.0000      -0.648720       -17.6526
 162   2.0000      -0.646313       -17.5871
 163   2.0000      -0.634941       -17.2776
 164   2.0000      -0.627082       -17.0638
 165   2.0000      -0.623024       -16.9533
 166   2.0000      -0.621479       -16.9113
 167   2.0000      -0.614103       -16.7106
 168   2.0000      -0.612092       -16.6559
 169   2.0000      -0.611387       -16.6367
 170   2.0000      -0.602098       -16.3839
 171   2.0000      -0.593120       -16.1396
 172   2.0000      -0.591645       -16.0995
 173   2.0000      -0.590641       -16.0722
 174   2.0000      -0.586378       -15.9561
 175   2.0000      -0.580716       -15.8021
 176   2.0000      -0.571700       -15.5568
 177   2.0000      -0.570962       -15.5367
 178   2.0000      -0.565950       -15.4003
 179   2.0000      -0.554068       -15.0770
 180   2.0000      -0.550070       -14.9682
 181   2.0000      -0.547643       -14.9021
 182   2.0000      -0.547068       -14.8865
 183   2.0000      -0.544748       -14.8233
 184   2.0000      -0.544386       -14.8135
 185   2.0000      -0.543809       -14.7978
 186   2.0000      -0.533495       -14.5171
 187   2.0000      -0.532767       -14.4973
 188   2.0000      -0.529995       -14.4219
 189   2.0000      -0.529172       -14.3995
 190   2.0000      -0.525974       -14.3125
 191   2.0000      -0.525148       -14.2900
 192   2.0000      -0.520808       -14.1719
 193   2.0000      -0.519040       -14.1238
 194   2.0000      -0.516862       -14.0645
 195   2.0000      -0.509956       -13.8766
 196   2.0000      -0.507969       -13.8225
 197   2.0000      -0.503079       -13.6895
 198   2.0000      -0.500571       -13.6212
 199   2.0000      -0.499272       -13.5859
 200   2.0000      -0.498023       -13.5519
 201   2.0000      -0.496380       -13.5072
 202   2.0000      -0.495211       -13.4754
 203   2.0000      -0.493705       -13.4344
 204   2.0000      -0.490045       -13.3348
 205   2.0000      -0.487935       -13.2774
 206   2.0000      -0.486968       -13.2511
 207   2.0000      -0.483131       -13.1467
 208   2.0000      -0.481581       -13.1045
 209   2.0000      -0.478848       -13.0301
 210   2.0000      -0.476002       -12.9527
 211   2.0000      -0.474596       -12.9144
 212   2.0000      -0.474005       -12.8983
 213   2.0000      -0.472112       -12.8468
 214   2.0000      -0.470087       -12.7917
 215   2.0000      -0.467733       -12.7277
 216   2.0000      -0.465480       -12.6664
 217   2.0000      -0.460846       -12.5403
 218   2.0000      -0.459733       -12.5100
 219   2.0000      -0.454836       -12.3767
 220   2.0000      -0.453581       -12.3426
 221   2.0000      -0.452795       -12.3212
 222   2.0000      -0.451888       -12.2965
 223   2.0000      -0.450636       -12.2624
 224   2.0000      -0.447558       -12.1787
 225   2.0000      -0.446383       -12.1467
 226   2.0000      -0.445542       -12.1238
 227   2.0000      -0.444106       -12.0847
 228   2.0000      -0.442525       -12.0417
 229   2.0000      -0.441521       -12.0144
 230   2.0000      -0.441214       -12.0061
 231   2.0000      -0.431811       -11.7502
 232   2.0000      -0.431209       -11.7338
 233   2.0000      -0.431001       -11.7281
 234   2.0000      -0.429168       -11.6782
 235   2.0000      -0.428388       -11.6570
 236   2.0000      -0.425288       -11.5727
 237   2.0000      -0.424278       -11.5452
 238   2.0000      -0.422493       -11.4966
 239   2.0000      -0.421837       -11.4788
 240   2.0000      -0.420767       -11.4496
 241   2.0000      -0.418763       -11.3951
 242   2.0000      -0.412975       -11.2376
 243   2.0000      -0.411908       -11.2086
 244   2.0000      -0.409261       -11.1366
 245   2.0000      -0.404406       -11.0044
 246   2.0000      -0.402415       -10.9503
 247   2.0000      -0.400757       -10.9052
 248   2.0000      -0.398289       -10.8380
 249   2.0000      -0.394200       -10.7267
 250   2.0000      -0.389452       -10.5975
 251   2.0000      -0.369704       -10.0602
 252   2.0000      -0.365012        -9.9325
 253   2.0000      -0.360654        -9.8139
 254   2.0000      -0.359925        -9.7941
 255   2.0000      -0.347030        -9.4432
 256   2.0000      -0.339899        -9.2491
 257   2.0000      -0.338582        -9.2133
 258   2.0000      -0.336470        -9.1558
 259   2.0000      -0.333964        -9.0876
 260   2.0000      -0.332466        -9.0468
 261   2.0000      -0.325579        -8.8594
 262   2.0000      -0.314242        -8.5509
 263   2.0000      -0.310680        -8.4540
 264   2.0000      -0.304548        -8.2872
 265   2.0000      -0.285550        -7.7702
 266   2.0000      -0.281764        -7.6672
 267   2.0000      -0.271360        -7.3841
 268   2.0000      -0.269836        -7.3426
 269   2.0000      -0.235733        -6.4146
 270   0.0000      -0.089398        -2.4326
 271   0.0000      -0.080544        -2.1917
 272   0.0000      -0.074141        -2.0175
 273   0.0000      -0.066800        -1.8177
 274   0.0000      -0.036437        -0.9915

MULLIKEN ATOMIC CHARGES
-----------------------
   0 C :    0.142201
   1 O :   -0.185153
   2 C :   -0.150415
   3 C :    0.040445
   4 C :    0.317614
   5 C :   -0.351066
   6 C :   -0.187848
   7 N :    0.148163
   8 C :   -0.176620
   9 N :    0.144856
  10 C :   -0.115224
  11 C :   -0.044773
  12 C :   -0.094575
  13 S :    0.171912
  14 C :   -0.032127
  15 C :   -0.087457
  16 C :   -0.064635
  17 C :    0.051040
  18 C :    0.035543
  19 S :    0.187083
  20 C :   -0.089445
  21 C :    0.032539
  22 N :   -0.160175
  23 C :    0.089920
  24 C :    0.051110
  25 C :   -0.068411
  26 C :   -0.005019
  27 N :   -0.265447
  28 S :    0.465148
  29 N :   -0.265053
  30 C :   -0.004332
  31 C :   -0.066764
  32 C :    0.062186
  33 N :   -0.155773
  34 C :    0.087900
  35 C :    0.004191
  36 C :    0.030051
  37 C :   -0.091335
  38 S :    0.188276
  39 C :   -0.086945
  40 C :   -0.027445
  41 S :    0.172459
  42 C :   -0.090061
  43 C :   -0.067421
  44 C :    0.052307
  45 C :    0.033631
  46 C :   -0.039945
  47 C :   -0.116977
  48 C :    0.312537
  49 C :   -0.349906
  50 C :   -0.194081
  51 N :    0.152438
  52 C :   -0.175619
  53 N :    0.144564
  54 C :   -0.003523
  55 C :   -0.166954
  56 C :    0.142158
  57 O :   -0.179685
  58 C :    0.005762
  59 S :    0.203708
  60 C :   -0.060999
  61 C :    0.025825
  62 C :   -0.080303
  63 C :    0.003296
  64 S :    0.201119
  65 C :   -0.107925
  66 S :    0.144571
  67 C :   -0.061035
  68 C :    0.049375
  69 C :   -0.010231
  70 H :   -0.015623
  71 H :    0.035860
  72 H :    0.012886
  73 H :    0.012391
  74 H :    0.031149
  75 H :    0.015177
  76 H :    0.004656
  77 H :    0.040704
  78 H :    0.005354
  79 H :    0.039692
  80 H :    0.033537
  81 H :    0.034758
  82 H :    0.036824
  83 H :    0.013144
  84 H :    0.034215
  85 H :    0.014796
  86 H :    0.032731
  87 H :    0.013421
  88 H :   -0.015402
  89 H :    0.036082
  90 H :    0.031078
  91 H :    0.034860
  92 H :    0.041847
  93 H :    0.017159
  94 H :    0.016315
  95 H :    0.036068
  96 H :   -0.003860
  97 H :   -0.003043
Sum of atomic charges:   -0.0000000

LOEWDIN ATOMIC CHARGES
----------------------
   0 C :    0.064447
   1 O :   -0.177676
   2 C :   -0.209454
   3 C :   -0.033369
   4 C :    0.079936
   5 C :   -0.145800
   6 C :   -0.017198
   7 N :   -0.057220
   8 C :   -0.019281
   9 N :   -0.056332
  10 C :   -0.117368
  11 C :    0.046819
  12 C :   -0.193355
  13 S :    0.479417
  14 C :   -0.198571
  15 C :   -0.196787
  16 C :   -0.013906
  17 C :   -0.030663
  18 C :   -0.041935
  19 S :    0.419649
  20 C :   -0.167627
  21 C :   -0.044377
  22 N :    0.046422
  23 C :    0.036937
  24 C :    0.011638
  25 C :   -0.079051
  26 C :   -0.055549
  27 N :   -0.288341
  28 S :    0.599445
  29 N :   -0.288454
  30 C :   -0.055577
  31 C :   -0.079849
  32 C :    0.012868
  33 N :    0.046893
  34 C :    0.036649
  35 C :   -0.062771
  36 C :   -0.044945
  37 C :   -0.166644
  38 S :    0.420505
  39 C :   -0.196994
  40 C :   -0.196675
  41 S :    0.476834
  42 C :   -0.193874
  43 C :   -0.012216
  44 C :   -0.030443
  45 C :   -0.041965
  46 C :    0.049624
  47 C :   -0.120438
  48 C :    0.079844
  49 C :   -0.146693
  50 C :   -0.017728
  51 N :   -0.057304
  52 C :   -0.019422
  53 N :   -0.056725
  54 C :   -0.040623
  55 C :   -0.210099
  56 C :    0.067428
  57 O :   -0.172071
  58 C :   -0.063161
  59 S :    0.497207
  60 C :   -0.153216
  61 C :   -0.043828
  62 C :   -0.054031
  63 C :   -0.147432
  64 S :    0.491515
  65 C :   -0.198765
  66 S :    0.457028
  67 C :   -0.172718
  68 C :   -0.061369
  69 C :   -0.055278
  70 H :    0.047161
  71 H :    0.036946
  72 H :    0.031158
  73 H :    0.023705
  74 H :    0.031933
  75 H :    0.025342
  76 H :    0.027002
  77 H :    0.033325
  78 H :    0.027417
  79 H :    0.032650
  80 H :    0.035692
  81 H :    0.025332
  82 H :    0.025574
  83 H :    0.031471
  84 H :    0.036557
  85 H :    0.025014
  86 H :    0.032501
  87 H :    0.023875
  88 H :    0.047560
  89 H :    0.025487
  90 H :    0.035198
  91 H :    0.024424
  92 H :    0.030381
  93 H :    0.043498
  94 H :    0.036706
  95 H :    0.027533
  96 H :    0.033265
  97 H :    0.027356

  Mayer bond orders larger than 0.100000
B(  0-C ,  1-O ) :   2.1084 B(  0-C ,  2-C ) :   1.0759 B(  0-C , 10-C ) :   0.9596
B(  2-C ,  3-C ) :   1.4684 B(  2-C , 64-S ) :   1.0998 B(  3-C ,  4-C ) :   0.9779
B(  3-C , 62-C ) :   1.2777 B(  4-C ,  5-C ) :   1.6278 B(  4-C , 10-C ) :   1.0893
B(  5-C ,  6-C ) :   1.1523 B(  5-C ,  8-C ) :   1.1432 B(  6-C ,  7-N ) :   2.9762
B(  8-C ,  9-N ) :   2.9650 B( 10-C , 11-C ) :   1.5234 B( 11-C , 12-C ) :   1.2818
B( 11-C , 70-H ) :   0.9302 B( 12-C , 13-S ) :   1.0437 B( 12-C , 16-C ) :   1.3817
B( 13-S , 14-C ) :   1.0252 B( 14-C , 15-C ) :   1.4045 B( 14-C , 21-C ) :   1.2811
B( 15-C , 16-C ) :   1.4135 B( 15-C , 19-S ) :   1.0187 B( 16-C , 17-C ) :   1.0761
B( 17-C , 18-C ) :   1.1048 B( 17-C , 71-H ) :   0.9058 B( 17-C , 72-H ) :   0.9220
B( 18-C , 73-H ) :   0.9693 B( 18-C , 74-H ) :   0.9668 B( 18-C , 75-H ) :   0.9665
B( 19-S , 20-C ) :   1.0215 B( 20-C , 21-C ) :   1.4092 B( 20-C , 25-C ) :   1.3620
B( 21-C , 22-N ) :   1.1490 B( 21-C , 24-C ) :   0.1071 B( 22-N , 23-C ) :   0.9464
B( 22-N , 24-C ) :   1.1841 B( 23-C , 58-C ) :   1.1001 B( 23-C , 76-H ) :   0.9473
B( 23-C , 77-H ) :   0.9393 B( 24-C , 25-C ) :   1.3739 B( 24-C , 32-C ) :   1.1232
B( 25-C , 26-C ) :   1.1063 B( 25-C , 31-C ) :   0.1060 B( 26-C , 27-N ) :   1.6328
B( 26-C , 30-C ) :   1.1426 B( 27-N , 28-S ) :   1.2218 B( 27-N , 29-N ) :   0.1301
B( 28-S , 29-N ) :   1.2217 B( 29-N , 30-C ) :   1.6319 B( 30-C , 31-C ) :   1.1058
B( 31-C , 32-C ) :   1.3760 B( 31-C , 37-C ) :   1.3655 B( 32-C , 33-N ) :   1.1883
B( 32-C , 36-C ) :   0.1080 B( 33-N , 34-C ) :   0.9473 B( 33-N , 36-C ) :   1.1443
B( 34-C , 35-C ) :   1.1006 B( 34-C , 78-H ) :   0.9464 B( 34-C , 79-H ) :   0.9390
B( 35-C , 80-H ) :   0.9659 B( 35-C , 81-H ) :   0.9511 B( 35-C , 82-H ) :   0.9567
B( 36-C , 37-C ) :   1.4097 B( 36-C , 40-C ) :   1.2807 B( 37-C , 38-S ) :   1.0203
B( 38-S , 39-C ) :   1.0198 B( 39-C , 40-C ) :   1.4012 B( 39-C , 43-C ) :   1.4156
B( 40-C , 41-S ) :   1.0275 B( 41-S , 42-C ) :   1.0389 B( 42-C , 43-C ) :   1.3779
B( 42-C , 46-C ) :   1.2920 B( 43-C , 44-C ) :   1.0770 B( 44-C , 45-C ) :   1.1041
B( 44-C , 83-H ) :   0.9218 B( 44-C , 84-H ) :   0.9059 B( 45-C , 85-H ) :   0.9665
B( 45-C , 86-H ) :   0.9669 B( 45-C , 87-H ) :   0.9690 B( 46-C , 47-C ) :   1.5208
B( 46-C , 88-H ) :   0.9294 B( 47-C , 48-C ) :   1.0907 B( 47-C , 56-C ) :   0.9669
B( 48-C , 49-C ) :   1.6276 B( 48-C , 54-C ) :   0.9929 B( 49-C , 50-C ) :   1.1510
B( 49-C , 52-C ) :   1.1432 B( 50-C , 51-N ) :   2.9861 B( 52-C , 53-N ) :   2.9648
B( 54-C , 55-C ) :   1.4724 B( 54-C , 61-C ) :   1.2716 B( 55-C , 56-C ) :   1.0732
B( 55-C , 59-S ) :   1.1239 B( 56-C , 57-O ) :   2.1178 B( 58-C , 89-H ) :   0.9566
B( 58-C , 90-H ) :   0.9660 B( 58-C , 91-H ) :   0.9503 B( 59-S , 60-C ) :   1.1846
B( 60-C , 61-C ) :   1.5403 B( 60-C , 92-H ) :   0.9623 B( 61-C , 93-H ) :   0.9954
B( 62-C , 63-C ) :   1.4693 B( 62-C , 94-H ) :   0.9921 B( 63-C , 64-S ) :   1.1372
B( 63-C , 65-C ) :   1.1475 B( 65-C , 66-S ) :   1.1488 B( 65-C , 69-C ) :   1.5159
B( 66-S , 67-C ) :   1.1727 B( 67-C , 68-C ) :   1.5665 B( 67-C , 95-H ) :   0.9727
B( 68-C , 69-C ) :   1.2675 B( 68-C , 96-H ) :   0.9939 B( 69-C , 97-H ) :   0.9924

-----------------------------------------------------------------------------
         ABSORPTION SPECTRUM VIA TRANSITION ELECTRIC DIPOLE MOMENTS
-----------------------------------------------------------------------------
State   Energy  Wavelength   fosc         T2         TX        TY        TZ
        (cm-1)    (nm)                  (au**2)     (au)      (au)      (au)
-----------------------------------------------------------------------------
   0   17440.0    573.4   2.338922814  44.15141  -0.16602  -6.39342   1.80223
   1   19770.2    505.8   0.063301485   1.05409   0.45631   0.87925   0.26981
   2   20891.9    478.7   0.231187695   3.64303  -0.74703   0.98259  -1.45585
   3   22787.8    438.8   0.836603790  12.08631  -2.04475  -0.75198  -2.70921
   4   25040.6    399.4   0.097509508   1.28197  -0.61857  -0.01429  -0.94823
   5   25866.4    386.6   0.051507218   0.65555  -0.45295  -0.09392  -0.66450
   6   26593.0    376.0   0.142170515   1.76002  -0.44319  -1.19640  -0.36365
   7   27246.6    367.0   0.020290345   0.24516   0.04228   0.40641   0.27966
   8   27491.4    363.8   0.247150045   2.95965  -0.97141   0.34012  -1.37852
   9   28574.0    350.0   0.239191428   2.75581  -0.80572  -0.00128  -1.45142
  10   29288.1    341.4   0.044566188   0.50094   0.25121  -0.33052   0.57323
  11   29716.7    336.5   0.094818432   1.05043   0.51794   0.01047   0.88434
  12   29955.8    333.8   0.020006009   0.21986   0.18695  -0.14463   0.40496
  13   30053.8    332.7   0.223825299   2.45180   0.08753  -1.40737   0.68077
  14   30467.9    328.2   0.000413856   0.00447  -0.01191   0.03568  -0.05529
  15   30798.9    324.7   0.036155562   0.38647   0.14018   0.60097  -0.07517
  16   31071.6    321.8   0.063695666   0.67487  -0.21508  -0.79230   0.02948
  17   31435.7    318.1   0.042329985   0.44330   0.28034  -0.37913   0.47008
  18   31741.6    315.0   0.009123102   0.09462  -0.04233   0.27683   0.12725
  19   32601.7    306.7   0.004022578   0.04062  -0.19151  -0.04123  -0.04736
  20   32927.0    303.7   0.001824635   0.01824   0.05120  -0.03816  -0.11902
  21   33292.8    300.4   0.109374135   1.08153   0.70282  -0.17175   0.74705
  22   34249.5    292.0   0.271176300   2.60659  -0.91691  -0.42312  -1.25970
  23   34436.3    290.4   0.100888226   0.96449  -0.49915  -0.66608  -0.52124
  24   34786.5    287.5   0.010470017   0.09909   0.05047  -0.28048   0.13367
  25   35031.4    285.5   0.093270917   0.87652   0.37542   0.74102   0.43182
  26   35208.1    284.0   0.041279672   0.38598  -0.03032   0.61945  -0.03671
  27   35788.6    279.4   0.009857840   0.09068  -0.04874   0.27795  -0.10512
  28   35937.8    278.3   0.037308600   0.34177  -0.13381  -0.56877  -0.01922
  29   36217.4    276.1   0.169484232   1.54059  -0.60162  -0.52258  -0.95161
  30   36494.2    274.0   0.248701463   2.24352   0.07132   1.49032  -0.13182
  31   36581.8    273.4   0.684192528   6.15728  -0.95009   1.50956  -1.72506
  32   36985.2    270.4   0.142546945   1.26884  -0.44306  -0.86022  -0.57668
  33   37325.8    267.9   0.009857743   0.08694  -0.01583   0.19183  -0.22337
  34   37587.9    266.0   0.088637742   0.77633  -0.46243  -0.70015  -0.26884
  35   37839.5    264.3   0.017422289   0.15158   0.02048   0.37198  -0.11307
  36   38309.5    261.0   0.043981126   0.37795  -0.39636  -0.26310  -0.38940
  37   38481.7    259.9   0.130985986   1.12059   0.50001   0.60200   0.71287
  38   38822.6    257.6   0.037980349   0.32207   0.38147  -0.00177   0.42017
  39   39376.7    254.0   0.176793281   1.47809   0.49988   0.92108   0.61630
  40   39491.5    253.2   0.003720846   0.03102   0.07122   0.15205  -0.05315
  41   39592.0    252.6   0.033447253   0.27812   0.31052   0.05597   0.42257

FINAL SINGLE POINT ENERGY     -5768.066014197481

DIPOLE MOMENT
-------------
                                X             Y             Z
Electronic contribution:      7.77074       3.02775      -1.03326
Nuclear contribution   :     -9.67144      -3.24395      -1.64142
                        -----------------------------------------
Total Dipole Moment    :     -1.90070      -0.21620      -2.67468
                        -----------------------------------------
Magnitude (a.u.)       :      3.28836
Magnitude (Debye)      :      8.35836

Rotational constants in cm-1:     0.001216     0.000281     0.000229
Rotational constants in MHz :    36.462608     8.424023     6.877408

                             ****ORCA TERMINATED NORMALLY****
TOTAL RUN TIME: 0 days 0 hours 10 minutes 7 seconds 615 msec
