                         Program Version 4.2.0 -  RELEASE  -
|  1> # ORCA input file
|  2> # SCF done       -183.016415676455          0.000808364364
|  3> ! CAM-B3LYP def2-SVP def2/J RIJCOSX Grid4 TightSCF
|  4> %maxcore 5000
|  5> %tddft
|  6>     Mode sTDDFT
|  7>     Ethresh 5.0
|  8>     maxcore 5000
|  9> end
| 10>
| 11> %pal
| 12>   nprocs 6
| 13>   end
| 14> * xyz 0 1
| 15>    C        2.54927         1.80554        -1.66866
| 16>    O        1.37288         1.52674        -1.65350
| 17>    C        3.19084         3.07484        -2.04501
| 18>    C        4.57141         2.91485        -1.97217
| 19>    C        4.92946         1.57859        -1.59411
| 20>    C        6.18229         1.03110        -1.74206
| 21>    C        7.27496         1.83343        -2.12522
| 22>    N        8.17026         2.49024        -2.41606
| 23>    C        6.47958        -0.33712        -1.62673
| 24>    N        6.77121        -1.44731        -1.58821
| 25>    C        3.67955         0.91786        -1.25390
| 26>    C        3.40327        -0.24875        -0.61354
| 27>    C        4.24374        -1.08960         0.15692
| 28>    S        3.86094        -2.80874         0.14024
| 29>    C        5.18250        -3.13941         1.19259
| 30>    C        5.83594        -1.96101         1.57191
| 31>    C        5.30736        -0.79434         0.99772
| 32>    C        5.75426         0.58255         1.37063
| 33>    C        5.68172         0.80916         2.88126
| 34>    S        7.18999        -2.24457         2.64096
| 35>    C        6.86447        -3.93965         2.57328
| 36>    C        5.77397        -4.27179         1.76315
| 37>    N        5.56614        -5.62566         1.78267
| 38>    C        4.29461        -6.15704         1.33563
| 39>    C        6.52484        -6.18207         2.61384
| 40>    C        7.33095        -5.13333         3.14179
| 41>    C        8.29414        -5.36985         4.14798
| 42>    N        9.08889        -4.49806         4.74855
| 43>    S        9.92183        -5.27061         5.90077
| 44>    N        9.29884        -6.74842         5.68212
| 45>    C        8.42057        -6.69142         4.69343
| 46>    C        7.66793        -7.73954         4.11989
| 47>    C        6.79926        -7.51335         3.01545
| 48>    N        6.28786        -8.72981         2.59227
| 49>    C        5.91236        -9.11790         1.24825
| 50>    C        7.09299        -9.73137         0.49624
| 51>    C        6.77469        -9.69321         3.43996
| 52>    C        7.62490        -9.11689         4.39069
| 53>    S        8.30987       -10.25854         5.49246
| 54>    C        7.43939       -11.53617         4.67394
| 55>    C        6.66142       -11.07367         3.60417
| 56>    S        5.80409       -12.35975         2.84611
| 57>    C        6.53670       -13.52703         3.94864
| 58>    C        7.36318       -12.91558         4.88477
| 59>    C        8.16346       -13.64340         5.91105
| 60>    C        9.41347       -14.25752         5.27576
| 61>    C        6.19267       -14.89447         3.90349
| 62>    C        5.65170       -15.61248         2.88165
| 63>    C        5.51997       -15.32305         1.46523
| 64>    C        6.34591       -14.56639         0.67117
| 65>    C        6.09817       -14.41651        -0.70699
| 66>    N        5.88835       -14.26568        -1.82549
| 67>    C        7.53530       -13.96325         1.12188
| 68>    N        8.54077       -13.50833         1.43995
| 69>    C        4.50109       -16.21679         0.98145
| 70>    C        4.15305       -17.15274         1.94642
| 71>    C        4.91417       -16.87772         3.17535
| 72>    O        4.92463       -17.49483         4.21584
| 73>    C        3.51308        -6.81816         2.46530
| 74>    C        3.20864       -18.08587         1.48614
| 75>    C        2.86691       -17.83695         0.18998
| 76>    S        3.68686       -16.48249        -0.50147
| 77>    S        5.41450         4.33620        -2.42712
| 78>    C        3.89262         5.16218        -2.69897
| 79>    C        2.80266         4.34947        -2.45885
| 80>    C        3.88699         6.51993        -3.12760
| 81>    S        2.38920         7.36589        -3.40493
| 82>    C        3.23836         8.78907        -3.84378
| 83>    C        4.58874         8.62874        -3.78266
| 84>    C        4.96318         7.33790        -3.37566
| 85>    H        2.36681        -0.56734        -0.68994
| 86>    H        5.12172         1.32025         0.87553
| 87>    H        6.78525         0.72998         1.03416
| 88>    H        4.67003         0.63255         3.24001
| 89>    H        5.95578         1.83585         3.11001
| 90>    H        6.36028         0.14650         3.41017
| 91>    H        4.42450        -6.84585         0.49626
| 92>    H        3.72490        -5.30517         0.95578
| 93>    H        5.57459        -8.24212         0.70494
| 94>    H        5.09476        -9.84237         1.31647
| 95>    H        7.91417        -9.02001         0.44145
| 96>    H        6.78605        -9.98890        -0.51364
| 97>    H        7.44952       -10.63394         0.98532
| 98>    H        7.56243       -14.43242         6.36781
| 99>    H        8.45948       -12.93613         6.68811
|100>    H        9.13658       -14.96681         4.49930
|101>    H       10.00038       -14.77365         6.03064
|102>    H       10.02713       -13.48140         4.82588
|103>    H        6.29416       -15.43781         4.83869
|104>    H        4.03572        -7.68600         2.85648
|105>    H        2.54192        -7.13507         2.09587
|106>    H        3.36216        -6.11097         3.27760
|107>    H        2.81063       -18.89129         2.07481
|108>    H        2.17345       -18.38156        -0.42059
|109>    H        1.78544         4.67308        -2.58318
|110>    H        2.68537         9.66395        -4.12232
|111>    H        5.29081         9.40710        -4.02048
|112>    H        5.98191         7.01082        -3.26575
|113> *
|114>
|115>                          ****END OF INPUT****

CARTESIAN COORDINATES (ANGSTROEM)
---------------------------------
  C      2.549270    1.805540   -1.668660
  O      1.372880    1.526740   -1.653500
  C      3.190840    3.074840   -2.045010
  C      4.571410    2.914850   -1.972170
  C      4.929460    1.578590   -1.594110
  C      6.182290    1.031100   -1.742060
  C      7.274960    1.833430   -2.125220
  N      8.170260    2.490240   -2.416060
  C      6.479580   -0.337120   -1.626730
  N      6.771210   -1.447310   -1.588210
  C      3.679550    0.917860   -1.253900
  C      3.403270   -0.248750   -0.613540
  C      4.243740   -1.089600    0.156920
  S      3.860940   -2.808740    0.140240
  C      5.182500   -3.139410    1.192590
  C      5.835940   -1.961010    1.571910
  C      5.307360   -0.794340    0.997720
  C      5.754260    0.582550    1.370630
  C      5.681720    0.809160    2.881260
  S      7.189990   -2.244570    2.640960
  C      6.864470   -3.939650    2.573280
  C      5.773970   -4.271790    1.763150
  N      5.566140   -5.625660    1.782670
  C      4.294610   -6.157040    1.335630
  C      6.524840   -6.182070    2.613840
  C      7.330950   -5.133330    3.141790
  C      8.294140   -5.369850    4.147980
  N      9.088890   -4.498060    4.748550
  S      9.921830   -5.270610    5.900770
  N      9.298840   -6.748420    5.682120
  C      8.420570   -6.691420    4.693430
  C      7.667930   -7.739540    4.119890
  C      6.799260   -7.513350    3.015450
  N      6.287860   -8.729810    2.592270
  C      5.912360   -9.117900    1.248250
  C      7.092990   -9.731370    0.496240
  C      6.774690   -9.693210    3.439960
  C      7.624900   -9.116890    4.390690
  S      8.309870  -10.258540    5.492460
  C      7.439390  -11.536170    4.673940
  C      6.661420  -11.073670    3.604170
  S      5.804090  -12.359750    2.846110
  C      6.536700  -13.527030    3.948640
  C      7.363180  -12.915580    4.884770
  C      8.163460  -13.643400    5.911050
  C      9.413470  -14.257520    5.275760
  C      6.192670  -14.894470    3.903490
  C      5.651700  -15.612480    2.881650
  C      5.519970  -15.323050    1.465230
  C      6.345910  -14.566390    0.671170
  C      6.098170  -14.416510   -0.706990
  N      5.888350  -14.265680   -1.825490
  C      7.535300  -13.963250    1.121880
  N      8.540770  -13.508330    1.439950
  C      4.501090  -16.216790    0.981450
  C      4.153050  -17.152740    1.946420
  C      4.914170  -16.877720    3.175350
  O      4.924630  -17.494830    4.215840
  C      3.513080   -6.818160    2.465300
  C      3.208640  -18.085870    1.486140
  C      2.866910  -17.836950    0.189980
  S      3.686860  -16.482490   -0.501470
  S      5.414500    4.336200   -2.427120
  C      3.892620    5.162180   -2.698970
  C      2.802660    4.349470   -2.458850
  C      3.886990    6.519930   -3.127600
  S      2.389200    7.365890   -3.404930
  C      3.238360    8.789070   -3.843780
  C      4.588740    8.628740   -3.782660
  C      4.963180    7.337900   -3.375660
  H      2.366810   -0.567340   -0.689940
  H      5.121720    1.320250    0.875530
  H      6.785250    0.729980    1.034160
  H      4.670030    0.632550    3.240010
  H      5.955780    1.835850    3.110010
  H      6.360280    0.146500    3.410170
  H      4.424500   -6.845850    0.496260
  H      3.724900   -5.305170    0.955780
  H      5.574590   -8.242120    0.704940
  H      5.094760   -9.842370    1.316470
  H      7.914170   -9.020010    0.441450
  H      6.786050   -9.988900   -0.513640
  H      7.449520  -10.633940    0.985320
  H      7.562430  -14.432420    6.367810
  H      8.459480  -12.936130    6.688110
  H      9.136580  -14.966810    4.499300
  H     10.000380  -14.773650    6.030640
  H     10.027130  -13.481400    4.825880
  H      6.294160  -15.437810    4.838690
  H      4.035720   -7.686000    2.856480
  H      2.541920   -7.135070    2.095870
  H      3.362160   -6.110970    3.277600
  H      2.810630  -18.891290    2.074810
  H      2.173450  -18.381560   -0.420590
  H      1.785440    4.673080   -2.583180
  H      2.685370    9.663950   -4.122320
  H      5.290810    9.407100   -4.020480
  H      5.981910    7.010820   -3.265750

 Total Charge           Charge          ....    0
 Multiplicity           Mult            ....    1
 Number of Electrons    NEL             ....  540
 Basis Dimension        Dim             .... 1152

ORBITAL ENERGIES
----------------

  NO   OCC          E(Eh)            E(eV)
   0   2.0000     -89.003240     -2421.9013
   1   2.0000     -88.985891     -2421.4292
   2   2.0000     -88.985477     -2421.4179
   3   2.0000     -88.967554     -2420.9302
   4   2.0000     -88.967529     -2420.9295
   5   2.0000     -88.965262     -2420.8679
   6   2.0000     -88.962857     -2420.8024
   7   2.0000     -88.958557     -2420.6854
   8   2.0000     -19.215889      -522.8909
   9   2.0000     -19.212719      -522.8047
  10   2.0000     -14.480468      -394.0336
  11   2.0000     -14.477169      -393.9438
  12   2.0000     -14.426243      -392.5580
  13   2.0000     -14.426086      -392.5538
  14   2.0000     -14.414686      -392.2436
  15   2.0000     -14.412858      -392.1938
  16   2.0000     -14.411279      -392.1508
  17   2.0000     -14.409579      -392.1046
  18   2.0000     -10.369452      -282.1671
  19   2.0000     -10.367434      -282.1122
  20   2.0000     -10.345957      -281.5278
  21   2.0000     -10.344904      -281.4991
  22   2.0000     -10.340675      -281.3841
  23   2.0000     -10.339245      -281.3452
  24   2.0000     -10.334633      -281.2197
  25   2.0000     -10.332936      -281.1735
  26   2.0000     -10.332611      -281.1646
  27   2.0000     -10.332535      -281.1626
  28   2.0000     -10.328165      -281.0437
  29   2.0000     -10.325202      -280.9630
  30   2.0000     -10.324707      -280.9496
  31   2.0000     -10.318243      -280.7737
  32   2.0000     -10.318056      -280.7686
  33   2.0000     -10.317342      -280.7491
  34   2.0000     -10.317135      -280.7435
  35   2.0000     -10.316443      -280.7247
  36   2.0000     -10.316405      -280.7237
  37   2.0000     -10.316023      -280.7133
  38   2.0000     -10.315830      -280.7080
  39   2.0000     -10.315127      -280.6889
  40   2.0000     -10.314847      -280.6813
  41   2.0000     -10.314704      -280.6774
  42   2.0000     -10.314662      -280.6762
  43   2.0000     -10.314298      -280.6663
  44   2.0000     -10.311676      -280.5950
  45   2.0000     -10.310069      -280.5512
  46   2.0000     -10.309481      -280.5352
  47   2.0000     -10.304963      -280.4123
  48   2.0000     -10.304778      -280.4073
  49   2.0000     -10.304100      -280.3888
  50   2.0000     -10.303869      -280.3825
  51   2.0000     -10.301748      -280.3248
  52   2.0000     -10.301218      -280.3104
  53   2.0000     -10.297652      -280.2134
  54   2.0000     -10.297300      -280.2038
  55   2.0000     -10.296754      -280.1889
  56   2.0000     -10.296715      -280.1879
  57   2.0000     -10.296576      -280.1841
  58   2.0000     -10.294893      -280.1383
  59   2.0000     -10.292211      -280.0653
  60   2.0000     -10.288260      -279.9578
  61   2.0000     -10.287150      -279.9276
  62   2.0000     -10.286989      -279.9232
  63   2.0000     -10.282849      -279.8106
  64   2.0000     -10.282728      -279.8073
  65   2.0000     -10.280177      -279.7378
  66   2.0000     -10.278672      -279.6969
  67   2.0000     -10.267634      -279.3965
  68   2.0000     -10.261672      -279.2343
  69   2.0000     -10.259852      -279.1848
  70   2.0000      -8.095526      -220.2905
  71   2.0000      -8.080262      -219.8751
  72   2.0000      -8.080121      -219.8713
  73   2.0000      -8.063403      -219.4163
  74   2.0000      -8.061601      -219.3673
  75   2.0000      -8.059966      -219.3228
  76   2.0000      -8.056937      -219.2404
  77   2.0000      -8.052546      -219.1209
  78   2.0000      -6.067048      -165.0928
  79   2.0000      -6.059369      -164.8838
  80   2.0000      -6.057124      -164.8227
  81   2.0000      -6.049598      -164.6179
  82   2.0000      -6.049510      -164.6155
  83   2.0000      -6.045172      -164.4975
  84   2.0000      -6.044981      -164.4923
  85   2.0000      -6.042779      -164.4324
  86   2.0000      -6.042298      -164.4193
  87   2.0000      -6.032742      -164.1593
  88   2.0000      -6.031300      -164.1200
  89   2.0000      -6.029634      -164.0747
  90   2.0000      -6.028358      -164.0399
  91   2.0000      -6.027221      -164.0090
  92   2.0000      -6.026748      -163.9961
  93   2.0000      -6.025647      -163.9662
  94   2.0000      -6.025519      -163.9627
  95   2.0000      -6.023030      -163.8950
  96   2.0000      -6.022812      -163.8890
  97   2.0000      -6.022415      -163.8782
  98   2.0000      -6.021414      -163.8510
  99   2.0000      -6.018350      -163.7676
 100   2.0000      -6.017973      -163.7574
 101   2.0000      -6.013583      -163.6379
 102   2.0000      -1.130981       -30.7755
 103   2.0000      -1.127815       -30.6894
 104   2.0000      -1.112877       -30.2829
 105   2.0000      -1.105684       -30.0872
 106   2.0000      -1.097290       -29.8588
 107   2.0000      -1.028257       -27.9803
 108   2.0000      -1.026636       -27.9362
 109   2.0000      -1.011572       -27.5263
 110   2.0000      -1.009753       -27.4768
 111   2.0000      -1.004492       -27.3336
 112   2.0000      -1.004205       -27.3258
 113   2.0000      -0.991822       -26.9888
 114   2.0000      -0.991273       -26.9739
 115   2.0000      -0.989213       -26.9178
 116   2.0000      -0.968635       -26.3579
 117   2.0000      -0.964112       -26.2348
 118   2.0000      -0.960778       -26.1441
 119   2.0000      -0.957427       -26.0529
 120   2.0000      -0.947984       -25.7959
 121   2.0000      -0.940554       -25.5938
 122   2.0000      -0.907409       -24.6919
 123   2.0000      -0.902846       -24.5677
 124   2.0000      -0.900197       -24.4956
 125   2.0000      -0.896264       -24.3886
 126   2.0000      -0.894895       -24.3513
 127   2.0000      -0.885216       -24.0879
 128   2.0000      -0.878706       -23.9108
 129   2.0000      -0.872727       -23.7481
 130   2.0000      -0.860635       -23.4191
 131   2.0000      -0.854589       -23.2546
 132   2.0000      -0.851484       -23.1701
 133   2.0000      -0.845054       -22.9951
 134   2.0000      -0.837988       -22.8028
 135   2.0000      -0.834684       -22.7129
 136   2.0000      -0.826748       -22.4970
 137   2.0000      -0.821440       -22.3525
 138   2.0000      -0.810154       -22.0454
 139   2.0000      -0.797838       -21.7103
 140   2.0000      -0.796921       -21.6853
 141   2.0000      -0.786654       -21.4059
 142   2.0000      -0.769639       -20.9430
 143   2.0000      -0.764909       -20.8142
 144   2.0000      -0.756999       -20.5990
 145   2.0000      -0.753528       -20.5045
 146   2.0000      -0.743417       -20.2294
 147   2.0000      -0.739046       -20.1105
 148   2.0000      -0.718811       -19.5598
 149   2.0000      -0.717469       -19.5233
 150   2.0000      -0.713048       -19.4030
 151   2.0000      -0.709780       -19.3141
 152   2.0000      -0.695321       -18.9207
 153   2.0000      -0.691098       -18.8057
 154   2.0000      -0.690154       -18.7800
 155   2.0000      -0.684825       -18.6350
 156   2.0000      -0.669459       -18.2169
 157   2.0000      -0.664088       -18.0707
 158   2.0000      -0.662324       -18.0228
 159   2.0000      -0.655696       -17.8424
 160   2.0000      -0.648508       -17.6468
 161   2.0000      -0.646079       -17.5807
 162   2.0000      -0.644300       -17.5323
 163   2.0000      -0.630719       -17.1627
 164   2.0000      -0.627002       -17.0616
 165   2.0000      -0.621343       -16.9076
 166   2.0000      -0.620013       -16.8714
 167   2.0000      -0.617239       -16.7959
 168   2.0000      -0.611418       -16.6375
 169   2.0000      -0.605913       -16.4877
 170   2.0000      -0.602761       -16.4020
 171   2.0000      -0.593749       -16.1567
 172   2.0000      -0.592453       -16.1215
 173   2.0000      -0.588855       -16.0236
 174   2.0000      -0.587237       -15.9795
 175   2.0000      -0.575780       -15.6678
 176   2.0000      -0.569671       -15.5015
 177   2.0000      -0.566479       -15.4147
 178   2.0000      -0.554850       -15.0982
 179   2.0000      -0.553742       -15.0681
 180   2.0000      -0.549984       -14.9658
 181   2.0000      -0.547639       -14.9020
 182   2.0000      -0.544821       -14.8253
 183   2.0000      -0.543329       -14.7847
 184   2.0000      -0.540240       -14.7007
 185   2.0000      -0.537661       -14.6305
 186   2.0000      -0.535361       -14.5679
 187   2.0000      -0.532803       -14.4983
 188   2.0000      -0.529336       -14.4040
 189   2.0000      -0.524901       -14.2833
 190   2.0000      -0.523572       -14.2471
 191   2.0000      -0.520299       -14.1581
 192   2.0000      -0.519929       -14.1480
 193   2.0000      -0.515015       -14.0143
 194   2.0000      -0.507714       -13.8156
 195   2.0000      -0.505958       -13.7678
 196   2.0000      -0.502499       -13.6737
 197   2.0000      -0.501191       -13.6381
 198   2.0000      -0.500310       -13.6141
 199   2.0000      -0.497755       -13.5446
 200   2.0000      -0.495627       -13.4867
 201   2.0000      -0.493759       -13.4359
 202   2.0000      -0.491619       -13.3776
 203   2.0000      -0.490326       -13.3425
 204   2.0000      -0.489597       -13.3226
 205   2.0000      -0.485612       -13.2142
 206   2.0000      -0.481983       -13.1154
 207   2.0000      -0.480849       -13.0846
 208   2.0000      -0.478565       -13.0224
 209   2.0000      -0.476169       -12.9572
 210   2.0000      -0.474368       -12.9082
 211   2.0000      -0.472590       -12.8598
 212   2.0000      -0.469510       -12.7760
 213   2.0000      -0.468182       -12.7399
 214   2.0000      -0.466214       -12.6863
 215   2.0000      -0.464730       -12.6460
 216   2.0000      -0.460573       -12.5328
 217   2.0000      -0.459891       -12.5143
 218   2.0000      -0.459010       -12.4903
 219   2.0000      -0.455425       -12.3927
 220   2.0000      -0.454372       -12.3641
 221   2.0000      -0.453568       -12.3422
 222   2.0000      -0.452619       -12.3164
 223   2.0000      -0.450640       -12.2625
 224   2.0000      -0.449278       -12.2255
 225   2.0000      -0.447071       -12.1654
 226   2.0000      -0.445467       -12.1218
 227   2.0000      -0.442836       -12.0502
 228   2.0000      -0.439798       -11.9675
 229   2.0000      -0.437802       -11.9132
 230   2.0000      -0.436335       -11.8733
 231   2.0000      -0.433084       -11.7848
 232   2.0000      -0.431263       -11.7353
 233   2.0000      -0.428547       -11.6614
 234   2.0000      -0.425769       -11.5858
 235   2.0000      -0.424908       -11.5623
 236   2.0000      -0.423465       -11.5231
 237   2.0000      -0.421540       -11.4707
 238   2.0000      -0.420498       -11.4423
 239   2.0000      -0.418634       -11.3916
 240   2.0000      -0.416341       -11.3292
 241   2.0000      -0.415897       -11.3171
 242   2.0000      -0.413300       -11.2465
 243   2.0000      -0.412775       -11.2322
 244   2.0000      -0.407961       -11.1012
 245   2.0000      -0.405867       -11.0442
 246   2.0000      -0.400527       -10.8989
 247   2.0000      -0.396693       -10.7946
 248   2.0000      -0.390125       -10.6159
 249   2.0000      -0.389217       -10.5911
 250   2.0000      -0.387786       -10.5522
 251   2.0000      -0.367039        -9.9876
 252   2.0000      -0.361607        -9.8398
 253   2.0000      -0.358530        -9.7561
 254   2.0000      -0.347822        -9.4647
 255   2.0000      -0.345466        -9.4006
 256   2.0000      -0.344004        -9.3608
 257   2.0000      -0.342781        -9.3275
 258   2.0000      -0.335790        -9.1373
 259   2.0000      -0.332669        -9.0524
 260   2.0000      -0.331558        -9.0222
 261   2.0000      -0.329619        -8.9694
 262   2.0000      -0.311117        -8.4659
 263   2.0000      -0.308472        -8.3940
 264   2.0000      -0.302347        -8.2273
 265   2.0000      -0.284045        -7.7293
 266   2.0000      -0.277002        -7.5376
 267   2.0000      -0.272056        -7.4030
 268   2.0000      -0.270145        -7.3510
 269   2.0000      -0.234339        -6.3767
 270   0.0000      -0.089927        -2.4470
 271   0.0000      -0.085302        -2.3212
 272   0.0000      -0.063818        -1.7366
 273   0.0000      -0.054191        -1.4746
 274   0.0000      -0.033957        -0.9240

MULLIKEN ATOMIC CHARGES
-----------------------
   0 C :    0.139757
   1 O :   -0.137284
   2 C :    0.068596
   3 C :   -0.147887
   4 C :    0.225778
   5 C :   -0.345386
   6 C :   -0.204741
   7 N :    0.158879
   8 C :   -0.196722
   9 N :    0.183439
  10 C :   -0.142009
  11 C :    0.039121
  12 C :   -0.149780
  13 S :    0.138861
  14 C :   -0.032574
  15 C :   -0.110728
  16 C :   -0.060652
  17 C :    0.076687
  18 C :    0.018938
  19 S :    0.192600
  20 C :   -0.100219
  21 C :    0.040361
  22 N :   -0.166561
  23 C :    0.089701
  24 C :    0.058635
  25 C :   -0.049243
  26 C :   -0.010191
  27 N :   -0.264842
  28 S :    0.467364
  29 N :   -0.262562
  30 C :   -0.011853
  31 C :   -0.052501
  32 C :    0.037791
  33 N :   -0.178267
  34 C :    0.081826
  35 C :   -0.001542
  36 C :    0.019609
  37 C :   -0.084602
  38 S :    0.194488
  39 C :   -0.101646
  40 C :   -0.033780
  41 S :    0.140155
  42 C :   -0.143927
  43 C :   -0.021385
  44 C :    0.062681
  45 C :    0.025958
  46 C :    0.016794
  47 C :   -0.151843
  48 C :    0.228346
  49 C :   -0.331356
  50 C :   -0.199237
  51 N :    0.155722
  52 C :   -0.175869
  53 N :    0.154615
  54 C :   -0.172089
  55 C :    0.019238
  56 C :    0.150636
  57 O :   -0.142598
  58 C :   -0.005799
  59 C :    0.017021
  60 C :   -0.056984
  61 S :    0.211872
  62 S :    0.208458
  63 C :    0.009567
  64 C :   -0.088299
  65 C :   -0.103837
  66 S :    0.131463
  67 C :   -0.061147
  68 C :    0.051719
  69 C :   -0.008647
  70 H :    0.026700
  71 H :    0.015245
  72 H :    0.035966
  73 H :    0.021435
  74 H :    0.019290
  75 H :    0.024831
  76 H :    0.040617
  77 H :    0.027017
  78 H :    0.020013
  79 H :    0.032886
  80 H :    0.033346
  81 H :    0.031854
  82 H :    0.046936
  83 H :    0.020248
  84 H :    0.010728
  85 H :    0.025517
  86 H :    0.022125
  87 H :    0.028159
  88 H :    0.018461
  89 H :    0.036237
  90 H :    0.029360
  91 H :    0.033746
  92 H :    0.006163
  93 H :    0.042308
  94 H :    0.004212
  95 H :    0.035290
  96 H :   -0.001244
  97 H :    0.004465
Sum of atomic charges:   -0.0000000

LOEWDIN ATOMIC CHARGES
----------------------
   0 C :    0.082551
   1 O :   -0.138331
   2 C :   -0.065494
   3 C :   -0.173586
   4 C :    0.046713
   5 C :   -0.146288
   6 C :   -0.035709
   7 N :   -0.052065
   8 C :   -0.021295
   9 N :   -0.044071
  10 C :   -0.097405
  11 C :    0.038105
  12 C :   -0.186204
  13 S :    0.425293
  14 C :   -0.194722
  15 C :   -0.186168
  16 C :   -0.028090
  17 C :   -0.032221
  18 C :   -0.048633
  19 S :    0.438405
  20 C :   -0.177138
  21 C :   -0.036539
  22 N :    0.038908
  23 C :    0.042733
  24 C :    0.006745
  25 C :   -0.072581
  26 C :   -0.054349
  27 N :   -0.287539
  28 S :    0.601416
  29 N :   -0.288793
  30 C :   -0.055763
  31 C :   -0.076841
  32 C :    0.012261
  33 N :    0.031801
  34 C :    0.038658
  35 C :   -0.059036
  36 C :   -0.042531
  37 C :   -0.167911
  38 S :    0.431508
  39 C :   -0.195516
  40 C :   -0.187510
  41 S :    0.443187
  42 C :   -0.190853
  43 C :   -0.010891
  44 C :   -0.028106
  45 C :   -0.042068
  46 C :    0.046514
  47 C :   -0.110335
  48 C :    0.049145
  49 C :   -0.154569
  50 C :   -0.035530
  51 N :   -0.052196
  52 C :   -0.035498
  53 N :   -0.055901
  54 C :   -0.174937
  55 C :   -0.071297
  56 C :    0.082046
  57 O :   -0.143408
  58 C :   -0.060127
  59 C :   -0.036470
  60 C :   -0.156684
  61 S :    0.501995
  62 S :    0.500584
  63 C :   -0.149995
  64 C :   -0.044567
  65 C :   -0.198142
  66 S :    0.446673
  67 C :   -0.172458
  68 C :   -0.059195
  69 C :   -0.051755
  70 H :    0.045057
  71 H :    0.032909
  72 H :    0.039047
  73 H :    0.027700
  74 H :    0.028372
  75 H :    0.015090
  76 H :    0.022195
  77 H :    0.026079
  78 H :    0.027404
  79 H :    0.024910
  80 H :    0.033602
  81 H :    0.035346
  82 H :    0.029681
  83 H :    0.034334
  84 H :    0.029533
  85 H :    0.027914
  86 H :    0.026992
  87 H :    0.031458
  88 H :    0.047824
  89 H :    0.026683
  90 H :    0.034628
  91 H :    0.034796
  92 H :    0.042223
  93 H :    0.029584
  94 H :    0.036673
  95 H :    0.027238
  96 H :    0.034447
  97 H :    0.030355

  Mayer bond orders larger than 0.100000
B(  0-C ,  1-O ) :   2.2702 B(  0-C ,  2-C ) :   0.9233 B(  0-C , 10-C ) :   0.9294
B(  2-C ,  3-C ) :   1.4384 B(  2-C , 64-C ) :   1.2736 B(  3-C ,  4-C ) :   1.0886
B(  3-C , 62-S ) :   1.1317 B(  4-C ,  5-C ) :   1.6255 B(  4-C , 10-C ) :   1.0388
B(  5-C ,  6-C ) :   1.1346 B(  5-C ,  8-C ) :   1.1748 B(  6-C ,  7-N ) :   3.0051
B(  8-C ,  9-N ) :   3.0051 B( 10-C , 11-C ) :   1.7026 B( 11-C , 12-C ) :   1.0961
B( 11-C , 70-H ) :   0.9251 B( 12-C , 13-S ) :   1.0480 B( 12-C , 16-C ) :   1.5091
B( 13-S , 14-C ) :   1.0610 B( 14-C , 15-C ) :   1.4676 B( 14-C , 21-C ) :   1.2670
B( 15-C , 16-C ) :   1.3214 B( 15-C , 19-S ) :   1.0437 B( 16-C , 17-C ) :   1.0947
B( 17-C , 18-C ) :   1.0968 B( 17-C , 71-H ) :   0.9116 B( 17-C , 72-H ) :   0.9003
B( 18-C , 73-H ) :   0.9690 B( 18-C , 74-H ) :   0.9641 B( 18-C , 75-H ) :   0.9636
B( 19-S , 20-C ) :   1.0259 B( 20-C , 21-C ) :   1.4263 B( 20-C , 25-C ) :   1.3422
B( 21-C , 22-N ) :   1.1515 B( 21-C , 24-C ) :   0.1080 B( 22-N , 23-C ) :   0.9532
B( 22-N , 24-C ) :   1.1685 B( 23-C , 58-C ) :   1.1128 B( 23-C , 76-H ) :   0.9396
B( 23-C , 77-H ) :   0.9401 B( 24-C , 25-C ) :   1.3842 B( 24-C , 32-C ) :   1.1410
B( 25-C , 26-C ) :   1.1165 B( 26-C , 27-N ) :   1.6262 B( 26-C , 30-C ) :   1.1459
B( 27-N , 28-S ) :   1.2253 B( 27-N , 29-N ) :   0.1311 B( 28-S , 29-N ) :   1.2227
B( 29-N , 30-C ) :   1.6342 B( 30-C , 31-C ) :   1.1092 B( 31-C , 32-C ) :   1.3918
B( 31-C , 37-C ) :   1.3253 B( 32-C , 33-N ) :   1.1443 B( 33-N , 34-C ) :   0.9440
B( 33-N , 36-C ) :   1.1414 B( 34-C , 35-C ) :   1.1108 B( 34-C , 78-H ) :   0.9463
B( 34-C , 79-H ) :   0.9468 B( 35-C , 80-H ) :   0.9641 B( 35-C , 81-H ) :   0.9624
B( 35-C , 82-H ) :   0.9603 B( 36-C , 37-C ) :   1.4262 B( 36-C , 40-C ) :   1.3040
B( 37-C , 38-S ) :   1.0297 B( 38-S , 39-C ) :   1.0295 B( 39-C , 40-C ) :   1.4376
B( 39-C , 43-C ) :   1.3674 B( 40-C , 41-S ) :   1.0620 B( 41-S , 42-C ) :   1.0472
B( 42-C , 43-C ) :   1.4446 B( 42-C , 46-C ) :   1.1680 B( 43-C , 44-C ) :   1.0892
B( 44-C , 45-C ) :   1.1005 B( 44-C , 83-H ) :   0.9083 B( 44-C , 84-H ) :   0.9213
B( 45-C , 85-H ) :   0.9694 B( 45-C , 86-H ) :   0.9670 B( 45-C , 87-H ) :   0.9674
B( 46-C , 47-C ) :   1.6489 B( 46-C , 88-H ) :   0.9354 B( 47-C , 48-C ) :   1.0408
B( 47-C , 56-C ) :   0.9403 B( 48-C , 49-C ) :   1.6329 B( 48-C , 54-C ) :   1.0873
B( 49-C , 50-C ) :   1.1356 B( 49-C , 52-C ) :   1.1670 B( 50-C , 51-N ) :   3.0120
B( 52-C , 53-N ) :   2.9510 B( 54-C , 55-C ) :   1.4502 B( 54-C , 61-S ) :   1.1524
B( 55-C , 56-C ) :   0.9400 B( 55-C , 59-C ) :   1.2733 B( 56-C , 57-O ) :   2.2533
B( 58-C , 89-H ) :   0.9616 B( 58-C , 90-H ) :   0.9630 B( 58-C , 91-H ) :   0.9625
B( 59-C , 60-C ) :   1.5501 B( 59-C , 92-H ) :   1.0070 B( 60-C , 61-S ) :   1.1641
B( 60-C , 93-H ) :   0.9686 B( 62-S , 63-C ) :   1.1109 B( 63-C , 64-C ) :   1.4760
B( 63-C , 65-C ) :   1.1557 B( 64-C , 94-H ) :   1.0064 B( 65-C , 66-S ) :   1.1421
B( 65-C , 69-C ) :   1.5162 B( 66-S , 67-C ) :   1.1705 B( 67-C , 68-C ) :   1.5670
B( 67-C , 95-H ) :   0.9729 B( 68-C , 69-C ) :   1.2668 B( 68-C , 96-H ) :   0.9946
B( 69-C , 97-H ) :   0.9923

-----------------------------------------------------------------------------
         ABSORPTION SPECTRUM VIA TRANSITION ELECTRIC DIPOLE MOMENTS
-----------------------------------------------------------------------------
State   Energy  Wavelength   fosc         T2         TX        TY        TZ
        (cm-1)    (nm)                  (au**2)     (au)      (au)      (au)
-----------------------------------------------------------------------------
   0   16617.4    601.8   1.259442533  24.95120  -0.04446   4.97553  -0.43971
   1   18382.2    544.0   0.230325647   4.12498  -0.54586   0.53407  -1.88196
   2   22587.0    442.7   0.742330426  10.81966   0.50957  -3.00711   1.23178
   3   24359.9    410.5   0.022173121   0.29966  -0.51543   0.13416  -0.12645
   4   24718.9    404.5   0.362053774   4.82191   0.27711  -2.17158  -0.17133
   5   25293.5    395.4   0.094664680   1.23212   0.75864   0.54871   0.59624
   6   25534.7    391.6   0.660210855   8.51192  -1.67651   1.80456  -1.56358
   7   26772.5    373.5   0.127343036   1.56589  -0.38014   0.17988  -1.17857
   8   27078.9    369.3   0.158978674   1.93278  -0.09614  -0.90509  -1.05088
   9   28469.2    351.3   0.040963452   0.47369   0.59812  -0.32788   0.09187
  10   28966.1    345.2   0.006597190   0.07498   0.11876   0.10543   0.22307
  11   29237.7    342.0   0.057772201   0.65051  -0.70232   0.33032  -0.21942
  12   30434.1    328.6   0.351786621   3.80535   1.30883   1.44643   0.01319
  13   30948.0    323.1   0.017331995   0.18437  -0.13132  -0.03192   0.40756
  14   30969.6    322.9   0.003859614   0.04103  -0.16798  -0.01877   0.11163
  15   31347.5    319.0   0.052720983   0.55368  -0.43304   0.55305  -0.24555
  16   31714.3    315.3   0.088669804   0.92044   0.68729   0.66059   0.10813
  17   32382.1    308.8   0.045028206   0.45778   0.59269   0.31113  -0.09844
  18   32603.2    306.7   0.165374558   1.66987  -1.07934   0.19984  -0.68188
  19   33334.5    300.0   0.163580447   1.61552   1.06182   0.69756   0.03857
  20   33727.5    296.5   0.069606779   0.67943   0.02142   0.59364  -0.57145
  21   34170.8    292.6   0.192807394   1.85757   0.87971   0.89167   0.53722
  22   34261.1    291.9   0.135475474   1.30177   0.34808   1.08414  -0.07248
  23   34541.3    289.5   0.003847309   0.03667  -0.14546   0.01896   0.12309
  24   34863.5    286.8   0.006581673   0.06215  -0.11219  -0.12399  -0.18491
  25   35279.2    283.5   0.027721175   0.25868  -0.28294  -0.42260   0.00597
  26   35422.7    282.3   0.180849574   1.68078  -0.84401  -0.92611   0.33280
  27   35702.9    280.1   0.044356236   0.40900   0.44932  -0.05505   0.45175
  28   36262.6    275.8   0.021308365   0.19345  -0.08680   0.24159  -0.35714
  29   36598.7    273.2   0.081095175   0.72947  -0.49893   0.68443   0.10995
  30   36749.6    272.1   0.047130699   0.42221  -0.12416  -0.25165   0.58606
  31   37281.6    268.2   0.038484443   0.33983  -0.37925   0.30831  -0.31772
  32   37380.3    267.5   0.336356996   2.96233   0.47248  -1.54713   0.58776
  33   37739.7    265.0   0.016999688   0.14829   0.37855  -0.06621   0.02463
  34   38180.0    261.9   0.023887980   0.20598   0.11925  -0.30322  -0.31593
  35   38264.1    261.3   0.179164364   1.54147   0.17413   0.94436  -0.78698
  36   38447.5    260.1   0.021081053   0.18051   0.37554  -0.03258  -0.19600
  37   38967.5    256.6   0.074629203   0.63050  -0.62898   0.43298  -0.21773
  38   39280.5    254.6   0.037280096   0.31245  -0.31315   0.03829  -0.46143
  39   39657.7    252.2   0.038414112   0.31889   0.06790   0.46034   0.31995
  40   39845.6    251.0   0.001576334   0.01302   0.02671  -0.07257  -0.08393
  41   40146.9    249.1   0.014491644   0.11883  -0.22862  -0.06054  -0.25081

FINAL SINGLE POINT ENERGY     -5768.040992322427

DIPOLE MOMENT
-------------
                                X             Y             Z
Electronic contribution:      4.73098      10.71647      -9.11190
Nuclear contribution   :     -7.43081      -9.71254       9.70844
                        -----------------------------------------
Total Dipole Moment    :     -2.69983       1.00393       0.59654
                        -----------------------------------------
Magnitude (a.u.)       :      2.94157
Magnitude (Debye)      :      7.47688

Rotational constants in cm-1:     0.001952     0.000255     0.000234
Rotational constants in MHz :    58.530251     7.649929     7.028989

                             ****ORCA TERMINATED NORMALLY****
TOTAL RUN TIME: 0 days 0 hours 14 minutes 35 seconds 503 msec
