                         Program Version 4.2.0 -  RELEASE  -
|  1> # ORCA input file
|  2> # SCF done       -200.231361142726          0.000728006993
|  3> ! wb97x-d3 def2-SVP def2/J RIJCOSX Grid4 TightSCF
|  4> %maxcore 5000
|  5> %tddft
|  6>     Mode sTDA
|  7>     Ethresh 5.0
|  8>     maxcore 5000
|  9> end
| 10>
| 11> %pal
| 12>   nprocs 6
| 13>   end
| 14> * xyz 0 1
| 15>    C        2.44050         0.59175         0.17416
| 16>    C        2.44309        -0.66192        -0.48476
| 17>    C        1.25045        -1.27397        -0.79265
| 18>    C        0.07637        -0.62960        -0.40644
| 19>    C        0.07282         0.63262         0.23690
| 20>    C        1.26464         1.24429         0.54426
| 21>    C       -1.28251        -1.04686        -0.51134
| 22>    C       -2.13638        -0.09565         0.04013
| 23>    C       -1.34713         1.09417         0.52635
| 24>    C        3.79908         0.98852         0.34328
| 25>    C        4.65496         0.02560        -0.20236
| 26>    C        3.86276        -1.12287        -0.77678
| 27>    S       -2.10322        -2.41925        -1.11557
| 28>    C       -3.63603        -1.71977        -0.63234
| 29>    C       -3.46704        -0.46760        -0.04314
| 30>    S        4.60969         2.30544         1.06463
| 31>    C        6.15385         1.56869         0.66046
| 32>    C        5.97929         0.34688        -0.01319
| 33>    C       -1.50246         1.33646         2.03939
| 34>    C       -1.74954         2.30352        -0.34694
| 35>    C       -1.01196         3.60374        -0.05782
| 36>    C       -2.89395         1.76131         2.48966
| 37>    C        4.03448        -1.24883        -2.30346
| 38>    C        4.25161        -2.39610         0.00540
| 39>    C        5.43803        -1.61593        -2.76618
| 40>    C        3.53526        -3.67792        -0.39807
| 41>    C        7.42418         2.06877         0.95725
| 42>    C       -4.87692        -2.37064        -0.78923
| 43>    C        7.80967         3.21068         1.62133
| 44>    C        6.91075         4.21511         2.19253
| 45>    C        7.78306         5.23184         2.81849
| 46>    C        9.12728         4.86938         2.63254
| 47>    C        9.17647         3.61163         1.88334
| 48>    C        7.41497         6.37701         3.49540
| 49>    C        8.42710         7.17830         3.99892
| 50>    C        9.76510         6.82773         3.82005
| 51>    C       10.13361         5.67656         3.13901
| 52>    O        5.69366         4.23321         2.17053
| 53>    C       10.32700         2.96286         1.51485
| 54>    C       10.40076         1.75371         0.79183
| 55>    C       11.62611         3.42556         1.81499
| 56>    N       10.55300         0.77531         0.20908
| 57>    N       12.70882         3.74607         2.02059
| 58>    F       10.72254         7.61917         4.31709
| 59>    F        8.11767         8.29861         4.66329
| 60>    C       -8.72874        -3.04580        -0.42563
| 61>    C       -9.60346        -2.19626         0.20824
| 62>    C       -9.23924        -0.91472         0.81579
| 63>    C      -10.47769        -0.36397         1.38989
| 64>    C      -11.53795        -1.25456         1.14331
| 65>    C      -11.02325        -2.40789         0.40192
| 66>    C      -10.66454         0.81998         2.07559
| 67>    C      -11.94243         1.12063         2.52626
| 68>    C      -12.99411         0.24818         2.28861
| 69>    C      -12.80904        -0.94375         1.59847
| 70>    O       -8.13308        -0.39754         0.84768
| 71>    C      -11.77252        -3.47645        -0.01641
| 72>    C      -11.28869        -4.59185        -0.73251
| 73>    C      -13.15792        -3.61138         0.21488
| 74>    N      -14.28132        -3.78868         0.37150
| 75>    N      -10.97811        -5.52968        -1.31827
| 76>    S       -6.30094        -1.60525        -0.13518
| 77>    C       -7.35309        -2.91673        -0.62976
| 78>    C       -6.58405        -3.88431        -1.28177
| 79>    C       -5.20212        -3.60067        -1.38150
| 80>    S       -7.02453        -5.39411        -1.99313
| 81>    C       -5.36202        -5.67073        -2.44616
| 82>    C       -4.53329        -4.65199        -2.06139
| 83>    F       -3.22303        -4.65565        -2.30870
| 84>    C       -5.05743        -6.92186        -3.15117
| 85>    O       -5.89468        -7.75440        -3.39791
| 86>    O       -3.76794        -7.00719        -3.48246
| 87>    C       -3.35516        -8.19978        -4.15085
| 88>    C       -3.07009        -9.31908        -3.16005
| 89>    H        1.19533        -2.21775        -1.31141
| 90>    H        1.32048         2.18929         1.06077
| 91>    H       -4.31025         0.10966         0.29020
| 92>    H        6.82362        -0.24632        -0.31655
| 93>    H       -1.23059         0.40920         2.55085
| 94>    H       -0.77947         2.09598         2.33952
| 95>    H       -1.57900         2.02625        -1.39076
| 96>    H       -2.82223         2.46076        -0.22396
| 97>    H        0.04783         3.50863        -0.27595
| 98>    H       -1.41510         4.39131        -0.69089
| 99>    H       -1.13395         3.90929         0.97753
|100>    H       -3.62981         0.99558         2.26284
|101>    H       -2.89121         1.91616         3.56639
|102>    H       -3.19758         2.69117         2.01706
|103>    H        3.32560        -1.99334        -2.66806
|104>    H        3.75417        -0.28923        -2.74626
|105>    H        5.32772        -2.53745        -0.10771
|106>    H        4.05909        -2.20273         1.06420
|107>    H        5.75117        -2.57511        -2.36357
|108>    H        5.45350        -1.68461        -3.85164
|109>    H        6.15635        -0.85786        -2.46757
|110>    H        2.47402        -3.62170        -0.17472
|111>    H        3.66414        -3.89086        -1.45558
|112>    H        3.95117        -4.51047         0.16541
|113>    H        8.22177         1.42714         0.60286
|114>    H        6.37873         6.64266         3.63078
|115>    H       11.18192         5.45293         3.02997
|116>    H       -9.12827        -3.96684        -0.83393
|117>    H       -9.83089         1.48307         2.24864
|118>    H      -12.12032         2.03867         3.06568
|119>    H      -13.98184         0.49657         2.64683
|120>    H      -13.64650        -1.60048         1.43045
|121>    H       -4.14048        -8.50349        -4.85092
|122>    H       -2.45376        -7.91568        -4.69725
|123>    H       -3.98300        -9.59503        -2.63773
|124>    H       -2.69355       -10.18794        -3.69192
|125>    H       -2.32843        -8.99659        -2.43301
|126> *
|127>
|128>                          ****END OF INPUT****

CARTESIAN COORDINATES (ANGSTROEM)
---------------------------------
  C      2.440500    0.591750    0.174160
  C      2.443090   -0.661920   -0.484760
  C      1.250450   -1.273970   -0.792650
  C      0.076370   -0.629600   -0.406440
  C      0.072820    0.632620    0.236900
  C      1.264640    1.244290    0.544260
  C     -1.282510   -1.046860   -0.511340
  C     -2.136380   -0.095650    0.040130
  C     -1.347130    1.094170    0.526350
  C      3.799080    0.988520    0.343280
  C      4.654960    0.025600   -0.202360
  C      3.862760   -1.122870   -0.776780
  S     -2.103220   -2.419250   -1.115570
  C     -3.636030   -1.719770   -0.632340
  C     -3.467040   -0.467600   -0.043140
  S      4.609690    2.305440    1.064630
  C      6.153850    1.568690    0.660460
  C      5.979290    0.346880   -0.013190
  C     -1.502460    1.336460    2.039390
  C     -1.749540    2.303520   -0.346940
  C     -1.011960    3.603740   -0.057820
  C     -2.893950    1.761310    2.489660
  C      4.034480   -1.248830   -2.303460
  C      4.251610   -2.396100    0.005400
  C      5.438030   -1.615930   -2.766180
  C      3.535260   -3.677920   -0.398070
  C      7.424180    2.068770    0.957250
  C     -4.876920   -2.370640   -0.789230
  C      7.809670    3.210680    1.621330
  C      6.910750    4.215110    2.192530
  C      7.783060    5.231840    2.818490
  C      9.127280    4.869380    2.632540
  C      9.176470    3.611630    1.883340
  C      7.414970    6.377010    3.495400
  C      8.427100    7.178300    3.998920
  C      9.765100    6.827730    3.820050
  C     10.133610    5.676560    3.139010
  O      5.693660    4.233210    2.170530
  C     10.327000    2.962860    1.514850
  C     10.400760    1.753710    0.791830
  C     11.626110    3.425560    1.814990
  N     10.553000    0.775310    0.209080
  N     12.708820    3.746070    2.020590
  F     10.722540    7.619170    4.317090
  F      8.117670    8.298610    4.663290
  C     -8.728740   -3.045800   -0.425630
  C     -9.603460   -2.196260    0.208240
  C     -9.239240   -0.914720    0.815790
  C    -10.477690   -0.363970    1.389890
  C    -11.537950   -1.254560    1.143310
  C    -11.023250   -2.407890    0.401920
  C    -10.664540    0.819980    2.075590
  C    -11.942430    1.120630    2.526260
  C    -12.994110    0.248180    2.288610
  C    -12.809040   -0.943750    1.598470
  O     -8.133080   -0.397540    0.847680
  C    -11.772520   -3.476450   -0.016410
  C    -11.288690   -4.591850   -0.732510
  C    -13.157920   -3.611380    0.214880
  N    -14.281320   -3.788680    0.371500
  N    -10.978110   -5.529680   -1.318270
  S     -6.300940   -1.605250   -0.135180
  C     -7.353090   -2.916730   -0.629760
  C     -6.584050   -3.884310   -1.281770
  C     -5.202120   -3.600670   -1.381500
  S     -7.024530   -5.394110   -1.993130
  C     -5.362020   -5.670730   -2.446160
  C     -4.533290   -4.651990   -2.061390
  F     -3.223030   -4.655650   -2.308700
  C     -5.057430   -6.921860   -3.151170
  O     -5.894680   -7.754400   -3.397910
  O     -3.767940   -7.007190   -3.482460
  C     -3.355160   -8.199780   -4.150850
  C     -3.070090   -9.319080   -3.160050
  H      1.195330   -2.217750   -1.311410
  H      1.320480    2.189290    1.060770
  H     -4.310250    0.109660    0.290200
  H      6.823620   -0.246320   -0.316550
  H     -1.230590    0.409200    2.550850
  H     -0.779470    2.095980    2.339520
  H     -1.579000    2.026250   -1.390760
  H     -2.822230    2.460760   -0.223960
  H      0.047830    3.508630   -0.275950
  H     -1.415100    4.391310   -0.690890
  H     -1.133950    3.909290    0.977530
  H     -3.629810    0.995580    2.262840
  H     -2.891210    1.916160    3.566390
  H     -3.197580    2.691170    2.017060
  H      3.325600   -1.993340   -2.668060
  H      3.754170   -0.289230   -2.746260
  H      5.327720   -2.537450   -0.107710
  H      4.059090   -2.202730    1.064200
  H      5.751170   -2.575110   -2.363570
  H      5.453500   -1.684610   -3.851640
  H      6.156350   -0.857860   -2.467570
  H      2.474020   -3.621700   -0.174720
  H      3.664140   -3.890860   -1.455580
  H      3.951170   -4.510470    0.165410
  H      8.221770    1.427140    0.602860
  H      6.378730    6.642660    3.630780
  H     11.181920    5.452930    3.029970
  H     -9.128270   -3.966840   -0.833930
  H     -9.830890    1.483070    2.248640
  H    -12.120320    2.038670    3.065680
  H    -13.981840    0.496570    2.646830
  H    -13.646500   -1.600480    1.430450
  H     -4.140480   -8.503490   -4.850920
  H     -2.453760   -7.915680   -4.697250
  H     -3.983000   -9.595030   -2.637730
  H     -2.693550  -10.187940   -3.691920
  H     -2.328430   -8.996590   -2.433010

 Total Charge           Charge          ....    0
 Multiplicity           Mult            ....    1
 Number of Electrons    NEL             ....  542
 Basis Dimension        Dim             .... 1237

ORBITAL ENERGIES
----------------

  NO   OCC          E(Eh)            E(eV)
   0   2.0000     -89.001390     -2421.8509
   1   2.0000     -89.000862     -2421.8366
   2   2.0000     -88.996503     -2421.7180
   3   2.0000     -88.995674     -2421.6954
   4   2.0000     -24.841201      -675.9635
   5   2.0000     -24.834688      -675.7862
   6   2.0000     -24.832889      -675.7373
   7   2.0000     -19.296521      -525.0850
   8   2.0000     -19.260988      -524.1181
   9   2.0000     -19.258145      -524.0408
  10   2.0000     -19.240149      -523.5511
  11   2.0000     -14.455165      -393.3450
  12   2.0000     -14.450411      -393.2157
  13   2.0000     -14.448086      -393.1524
  14   2.0000     -14.444321      -393.0500
  15   2.0000     -10.441537      -284.1287
  16   2.0000     -10.422446      -283.6092
  17   2.0000     -10.420409      -283.5537
  18   2.0000     -10.419769      -283.5363
  19   2.0000     -10.408483      -283.2292
  20   2.0000     -10.403385      -283.0905
  21   2.0000     -10.382860      -282.5320
  22   2.0000     -10.378550      -282.4147
  23   2.0000     -10.377385      -282.3830
  24   2.0000     -10.374862      -282.3143
  25   2.0000     -10.372190      -282.2416
  26   2.0000     -10.366309      -282.0816
  27   2.0000     -10.361894      -281.9615
  28   2.0000     -10.360049      -281.9113
  29   2.0000     -10.359235      -281.8891
  30   2.0000     -10.356486      -281.8143
  31   2.0000     -10.355882      -281.7979
  32   2.0000     -10.355869      -281.7975
  33   2.0000     -10.352558      -281.7074
  34   2.0000     -10.351868      -281.6886
  35   2.0000     -10.351818      -281.6873
  36   2.0000     -10.349669      -281.6288
  37   2.0000     -10.348786      -281.6048
  38   2.0000     -10.346053      -281.5304
  39   2.0000     -10.346009      -281.5292
  40   2.0000     -10.345839      -281.5246
  41   2.0000     -10.343608      -281.4639
  42   2.0000     -10.342869      -281.4438
  43   2.0000     -10.341549      -281.4078
  44   2.0000     -10.338347      -281.3207
  45   2.0000     -10.337180      -281.2890
  46   2.0000     -10.335332      -281.2387
  47   2.0000     -10.334414      -281.2137
  48   2.0000     -10.334205      -281.2080
  49   2.0000     -10.332883      -281.1720
  50   2.0000     -10.331020      -281.1213
  51   2.0000     -10.330921      -281.1187
  52   2.0000     -10.329346      -281.0758
  53   2.0000     -10.327915      -281.0368
  54   2.0000     -10.326842      -281.0076
  55   2.0000     -10.326561      -281.0000
  56   2.0000     -10.326506      -280.9985
  57   2.0000     -10.326263      -280.9919
  58   2.0000     -10.325838      -280.9803
  59   2.0000     -10.324957      -280.9564
  60   2.0000     -10.324157      -280.9346
  61   2.0000     -10.324117      -280.9335
  62   2.0000     -10.323166      -280.9076
  63   2.0000     -10.320739      -280.8416
  64   2.0000     -10.318136      -280.7708
  65   2.0000     -10.310525      -280.5636
  66   2.0000     -10.310517      -280.5634
  67   2.0000     -10.310165      -280.5539
  68   2.0000     -10.310130      -280.5529
  69   2.0000     -10.296526      -280.1827
  70   2.0000     -10.296461      -280.1810
  71   2.0000     -10.295979      -280.1678
  72   2.0000     -10.295803      -280.1630
  73   2.0000     -10.291926      -280.0575
  74   2.0000      -8.114026      -220.7939
  75   2.0000      -8.112447      -220.7509
  76   2.0000      -8.109039      -220.6582
  77   2.0000      -8.108215      -220.6357
  78   2.0000      -6.073525      -165.2690
  79   2.0000      -6.072423      -165.2390
  80   2.0000      -6.069306      -165.1542
  81   2.0000      -6.069027      -165.1466
  82   2.0000      -6.067777      -165.1126
  83   2.0000      -6.067488      -165.1048
  84   2.0000      -6.066367      -165.0742
  85   2.0000      -6.064819      -165.0321
  86   2.0000      -6.064532      -165.0243
  87   2.0000      -6.063243      -164.9892
  88   2.0000      -6.060722      -164.9206
  89   2.0000      -6.060268      -164.9083
  90   2.0000      -1.364174       -37.1211
  91   2.0000      -1.363815       -37.1113
  92   2.0000      -1.349099       -36.7109
  93   2.0000      -1.231763       -33.5180
  94   2.0000      -1.179107       -32.0851
  95   2.0000      -1.174904       -31.9708
  96   2.0000      -1.138723       -30.9862
  97   2.0000      -1.068795       -29.0834
  98   2.0000      -1.062194       -28.9038
  99   2.0000      -1.058976       -28.8162
 100   2.0000      -1.053556       -28.6687
 101   2.0000      -1.050420       -28.5834
 102   2.0000      -1.043741       -28.4016
 103   2.0000      -1.033726       -28.1291
 104   2.0000      -1.033156       -28.1136
 105   2.0000      -1.027033       -27.9470
 106   2.0000      -1.015596       -27.6358
 107   2.0000      -1.003424       -27.3046
 108   2.0000      -0.997033       -27.1307
 109   2.0000      -0.988988       -26.9117
 110   2.0000      -0.982852       -26.7448
 111   2.0000      -0.956232       -26.0204
 112   2.0000      -0.950592       -25.8669
 113   2.0000      -0.946468       -25.7547
 114   2.0000      -0.938116       -25.5274
 115   2.0000      -0.933317       -25.3969
 116   2.0000      -0.921026       -25.0624
 117   2.0000      -0.913976       -24.8706
 118   2.0000      -0.908424       -24.7195
 119   2.0000      -0.897166       -24.4131
 120   2.0000      -0.894044       -24.3282
 121   2.0000      -0.890303       -24.2264
 122   2.0000      -0.888013       -24.1641
 123   2.0000      -0.886281       -24.1169
 124   2.0000      -0.883981       -24.0543
 125   2.0000      -0.881651       -23.9909
 126   2.0000      -0.880452       -23.9583
 127   2.0000      -0.869149       -23.6507
 128   2.0000      -0.858018       -23.3478
 129   2.0000      -0.845235       -23.0000
 130   2.0000      -0.832284       -22.6476
 131   2.0000      -0.817163       -22.2361
 132   2.0000      -0.813298       -22.1310
 133   2.0000      -0.805663       -21.9232
 134   2.0000      -0.803148       -21.8548
 135   2.0000      -0.799249       -21.7487
 136   2.0000      -0.793394       -21.5894
 137   2.0000      -0.776368       -21.1260
 138   2.0000      -0.757393       -20.6097
 139   2.0000      -0.755041       -20.5457
 140   2.0000      -0.750578       -20.4243
 141   2.0000      -0.746885       -20.3238
 142   2.0000      -0.744783       -20.2666
 143   2.0000      -0.741193       -20.1689
 144   2.0000      -0.737235       -20.0612
 145   2.0000      -0.731683       -19.9101
 146   2.0000      -0.722041       -19.6477
 147   2.0000      -0.716942       -19.5090
 148   2.0000      -0.708657       -19.2835
 149   2.0000      -0.704076       -19.1589
 150   2.0000      -0.701057       -19.0767
 151   2.0000      -0.698557       -19.0087
 152   2.0000      -0.685238       -18.6463
 153   2.0000      -0.683479       -18.5984
 154   2.0000      -0.680091       -18.5062
 155   2.0000      -0.676196       -18.4002
 156   2.0000      -0.673926       -18.3385
 157   2.0000      -0.671463       -18.2714
 158   2.0000      -0.668230       -18.1835
 159   2.0000      -0.659901       -17.9568
 160   2.0000      -0.650488       -17.7007
 161   2.0000      -0.650046       -17.6887
 162   2.0000      -0.643729       -17.5167
 163   2.0000      -0.635647       -17.2968
 164   2.0000      -0.630284       -17.1509
 165   2.0000      -0.628587       -17.1047
 166   2.0000      -0.624691       -16.9987
 167   2.0000      -0.620802       -16.8929
 168   2.0000      -0.618520       -16.8308
 169   2.0000      -0.612515       -16.6674
 170   2.0000      -0.611263       -16.6333
 171   2.0000      -0.607196       -16.5226
 172   2.0000      -0.600504       -16.3405
 173   2.0000      -0.593850       -16.1595
 174   2.0000      -0.592556       -16.1243
 175   2.0000      -0.590307       -16.0631
 176   2.0000      -0.588076       -16.0024
 177   2.0000      -0.587358       -15.9828
 178   2.0000      -0.585077       -15.9208
 179   2.0000      -0.583584       -15.8801
 180   2.0000      -0.580064       -15.7843
 181   2.0000      -0.578229       -15.7344
 182   2.0000      -0.577449       -15.7132
 183   2.0000      -0.576064       -15.6755
 184   2.0000      -0.573900       -15.6166
 185   2.0000      -0.571110       -15.5407
 186   2.0000      -0.569381       -15.4936
 187   2.0000      -0.568294       -15.4641
 188   2.0000      -0.563036       -15.3210
 189   2.0000      -0.561893       -15.2899
 190   2.0000      -0.560661       -15.2564
 191   2.0000      -0.559819       -15.2334
 192   2.0000      -0.555102       -15.1051
 193   2.0000      -0.550085       -14.9686
 194   2.0000      -0.547594       -14.9008
 195   2.0000      -0.542294       -14.7566
 196   2.0000      -0.541357       -14.7311
 197   2.0000      -0.537791       -14.6340
 198   2.0000      -0.534158       -14.5352
 199   2.0000      -0.531342       -14.4585
 200   2.0000      -0.530837       -14.4448
 201   2.0000      -0.529618       -14.4116
 202   2.0000      -0.529466       -14.4075
 203   2.0000      -0.527863       -14.3639
 204   2.0000      -0.526608       -14.3297
 205   2.0000      -0.526482       -14.3263
 206   2.0000      -0.524796       -14.2804
 207   2.0000      -0.522431       -14.2161
 208   2.0000      -0.520618       -14.1667
 209   2.0000      -0.518714       -14.1149
 210   2.0000      -0.510426       -13.8894
 211   2.0000      -0.507203       -13.8017
 212   2.0000      -0.504939       -13.7401
 213   2.0000      -0.501465       -13.6455
 214   2.0000      -0.499440       -13.5905
 215   2.0000      -0.495200       -13.4751
 216   2.0000      -0.492099       -13.3907
 217   2.0000      -0.491574       -13.3764
 218   2.0000      -0.490137       -13.3373
 219   2.0000      -0.489059       -13.3080
 220   2.0000      -0.487255       -13.2589
 221   2.0000      -0.486171       -13.2294
 222   2.0000      -0.484307       -13.1787
 223   2.0000      -0.483209       -13.1488
 224   2.0000      -0.481514       -13.1027
 225   2.0000      -0.480371       -13.0716
 226   2.0000      -0.479657       -13.0521
 227   2.0000      -0.479067       -13.0361
 228   2.0000      -0.478172       -13.0117
 229   2.0000      -0.474751       -12.9186
 230   2.0000      -0.472616       -12.8605
 231   2.0000      -0.470608       -12.8059
 232   2.0000      -0.466614       -12.6972
 233   2.0000      -0.465576       -12.6690
 234   2.0000      -0.464622       -12.6430
 235   2.0000      -0.462037       -12.5727
 236   2.0000      -0.460150       -12.5213
 237   2.0000      -0.458994       -12.4899
 238   2.0000      -0.457487       -12.4488
 239   2.0000      -0.455633       -12.3984
 240   2.0000      -0.451930       -12.2977
 241   2.0000      -0.451666       -12.2905
 242   2.0000      -0.445154       -12.1132
 243   2.0000      -0.443946       -12.0804
 244   2.0000      -0.443025       -12.0553
 245   2.0000      -0.441200       -12.0057
 246   2.0000      -0.440605       -11.9895
 247   2.0000      -0.436230       -11.8704
 248   2.0000      -0.435993       -11.8640
 249   2.0000      -0.433316       -11.7911
 250   2.0000      -0.430173       -11.7056
 251   2.0000      -0.428723       -11.6662
 252   2.0000      -0.420198       -11.4342
 253   2.0000      -0.416933       -11.3453
 254   2.0000      -0.408540       -11.1169
 255   2.0000      -0.393100       -10.6968
 256   2.0000      -0.391354       -10.6493
 257   2.0000      -0.380962       -10.3665
 258   2.0000      -0.377542       -10.2734
 259   2.0000      -0.372391       -10.1333
 260   2.0000      -0.371875       -10.1192
 261   2.0000      -0.369475       -10.0539
 262   2.0000      -0.367955       -10.0126
 263   2.0000      -0.367129        -9.9901
 264   2.0000      -0.358671        -9.7599
 265   2.0000      -0.354840        -9.6557
 266   2.0000      -0.350099        -9.5267
 267   2.0000      -0.343968        -9.3598
 268   2.0000      -0.337277        -9.1778
 269   2.0000      -0.300391        -8.1740
 270   2.0000      -0.269006        -7.3200
 271   0.0000      -0.082046        -2.2326
 272   0.0000      -0.066431        -1.8077
 273   0.0000      -0.042867        -1.1665
 274   0.0000      -0.037869        -1.0305
 275   0.0000      -0.023075        -0.6279

MULLIKEN ATOMIC CHARGES
-----------------------
   0 C :    0.008780
   1 C :    0.036827
   2 C :   -0.099606
   3 C :    0.026711
   4 C :    0.030620
   5 C :   -0.093157
   6 C :   -0.051558
   7 C :    0.049134
   8 C :   -0.198234
   9 C :   -0.022261
  10 C :    0.059573
  11 C :   -0.192590
  12 S :    0.183919
  13 C :   -0.116027
  14 C :   -0.067540
  15 S :    0.208233
  16 C :   -0.089276
  17 C :   -0.065601
  18 C :    0.009023
  19 C :    0.016131
  20 C :   -0.012066
  21 C :   -0.016778
  22 C :    0.015493
  23 C :    0.008333
  24 C :   -0.017279
  25 C :   -0.012068
  26 C :    0.006758
  27 C :   -0.040768
  28 C :   -0.148802
  29 C :    0.230256
  30 C :   -0.057335
  31 C :    0.026706
  32 C :    0.293398
  33 C :   -0.097607
  34 C :    0.244239
  35 C :    0.246005
  36 C :   -0.091740
  37 O :   -0.200660
  38 C :   -0.383190
  39 C :   -0.125565
  40 C :   -0.132365
  41 N :    0.097628
  42 N :    0.108854
  43 F :   -0.179622
  44 F :   -0.184222
  45 C :   -0.012814
  46 C :   -0.153182
  47 C :    0.241621
  48 C :   -0.063473
  49 C :    0.012992
  50 C :    0.294587
  51 C :   -0.026709
  52 C :    0.013709
  53 C :    0.017505
  54 C :   -0.038198
  55 O :   -0.222034
  56 C :   -0.380574
  57 C :   -0.128778
  58 C :   -0.127245
  59 N :    0.103784
  60 N :    0.102961
  61 S :    0.193423
  62 C :   -0.112265
  63 C :   -0.037469
  64 C :    0.003615
  65 S :    0.221881
  66 C :   -0.292756
  67 C :    0.308556
  68 F :   -0.167128
  69 C :    0.290352
  70 O :   -0.225356
  71 O :   -0.319045
  72 C :    0.137575
  73 C :   -0.084038
  74 H :   -0.007086
  75 H :   -0.001957
  76 H :    0.037589
  77 H :    0.033152
  78 H :    0.035226
  79 H :    0.030172
  80 H :    0.033098
  81 H :    0.030282
  82 H :    0.036414
  83 H :    0.042381
  84 H :    0.025547
  85 H :    0.033058
  86 H :    0.043621
  87 H :    0.028513
  88 H :    0.028868
  89 H :    0.033865
  90 H :    0.031141
  91 H :    0.034890
  92 H :    0.028910
  93 H :    0.044709
  94 H :    0.032571
  95 H :    0.035149
  96 H :    0.026056
  97 H :    0.042692
  98 H :    0.025594
  99 H :    0.040488
 100 H :    0.045856
 101 H :    0.027265
 102 H :    0.022804
 103 H :    0.028818
 104 H :    0.029886
 105 H :    0.031399
 106 H :    0.053317
 107 H :    0.044333
 108 H :    0.057380
 109 H :    0.045204
 110 H :    0.046597
Sum of atomic charges:    0.0000000

LOEWDIN ATOMIC CHARGES
----------------------
   0 C :   -0.039779
   1 C :    0.015343
   2 C :   -0.025514
   3 C :   -0.025570
   4 C :    0.008288
   5 C :   -0.015422
   6 C :   -0.168894
   7 C :   -0.037915
   8 C :   -0.037247
   9 C :   -0.151403
  10 C :   -0.050006
  11 C :   -0.038079
  12 S :    0.461769
  13 C :   -0.202169
  14 C :   -0.034340
  15 S :    0.504502
  16 C :   -0.193062
  17 C :   -0.007222
  18 C :   -0.018335
  19 C :   -0.015746
  20 C :   -0.061156
  21 C :   -0.059746
  22 C :   -0.017568
  23 C :   -0.017293
  24 C :   -0.059687
  25 C :   -0.061502
  26 C :    0.067193
  27 C :   -0.137778
  28 C :   -0.133185
  29 C :    0.091350
  30 C :   -0.049600
  31 C :   -0.019120
  32 C :    0.081729
  33 C :   -0.007537
  34 C :    0.074235
  35 C :    0.077024
  36 C :   -0.017684
  37 O :   -0.168922
  38 C :   -0.150595
  39 C :   -0.014748
  40 C :   -0.014798
  41 N :   -0.057871
  42 N :   -0.054559
  43 F :   -0.047661
  44 F :   -0.049968
  45 C :    0.060307
  46 C :   -0.128247
  47 C :    0.096024
  48 C :   -0.049500
  49 C :   -0.015775
  50 C :    0.078987
  51 C :    0.011046
  52 C :   -0.006719
  53 C :   -0.000964
  54 C :    0.001261
  55 O :   -0.180357
  56 C :   -0.148826
  57 C :   -0.017214
  58 C :   -0.012875
  59 N :   -0.058211
  60 N :   -0.052548
  61 S :    0.522216
  62 C :   -0.223731
  63 C :   -0.144981
  64 C :   -0.128108
  65 S :    0.471159
  66 C :   -0.251152
  67 C :    0.081197
  68 F :   -0.037484
  69 C :    0.072908
  70 O :   -0.184135
  71 O :   -0.087692
  72 C :    0.084560
  73 C :   -0.072389
  74 H :    0.029906
  75 H :    0.031692
  76 H :    0.030462
  77 H :    0.039526
  78 H :    0.031921
  79 H :    0.022415
  80 H :    0.031726
  81 H :    0.023786
  82 H :    0.025969
  83 H :    0.033599
  84 H :    0.022939
  85 H :    0.025974
  86 H :    0.033839
  87 H :    0.023626
  88 H :    0.021966
  89 H :    0.031485
  90 H :    0.024086
  91 H :    0.031884
  92 H :    0.023769
  93 H :    0.034063
  94 H :    0.025709
  95 H :    0.025041
  96 H :    0.023128
  97 H :    0.033913
  98 H :    0.052110
  99 H :    0.054998
 100 H :    0.054058
 101 H :    0.047003
 102 H :    0.041564
 103 H :    0.037151
 104 H :    0.039116
 105 H :    0.042259
 106 H :    0.024898
 107 H :    0.025762
 108 H :    0.034571
 109 H :    0.035660
 110 H :    0.029919

  Mayer bond orders larger than 0.100000
B(  0-C ,  1-C ) :   1.3790 B(  0-C ,  5-C ) :   1.3174 B(  0-C ,  9-C ) :   1.0925
B(  1-C ,  2-C ) :   1.4278 B(  1-C , 11-C ) :   0.9266 B(  2-C ,  3-C ) :   1.3240
B(  2-C , 74-H ) :   0.9963 B(  3-C ,  4-C ) :   1.3770 B(  3-C ,  6-C ) :   1.0850
B(  4-C ,  5-C ) :   1.4361 B(  4-C ,  8-C ) :   0.9219 B(  5-C , 75-H ) :   0.9967
B(  6-C ,  7-C ) :   1.5060 B(  6-C , 12-S ) :   1.1104 B(  7-C ,  8-C ) :   0.9460
B(  7-C , 14-C ) :   1.3549 B(  8-C , 18-C ) :   1.0049 B(  8-C , 19-C ) :   0.9917
B(  9-C , 10-C ) :   1.4434 B(  9-C , 15-S ) :   1.1234 B( 10-C , 11-C ) :   0.9373
B( 10-C , 17-C ) :   1.3784 B( 11-C , 22-C ) :   1.0008 B( 11-C , 23-C ) :   0.9958
B( 12-S , 13-C ) :   1.1126 B( 13-C , 14-C ) :   1.4181 B( 13-C , 27-C ) :   1.2343
B( 14-C , 76-H ) :   0.9887 B( 15-S , 16-C ) :   1.0719 B( 16-C , 17-C ) :   1.3250
B( 16-C , 26-C ) :   1.3108 B( 17-C , 77-H ) :   1.0094 B( 18-C , 21-C ) :   1.0992
B( 18-C , 78-H ) :   0.9469 B( 18-C , 79-H ) :   0.9447 B( 19-C , 20-C ) :   1.1000
B( 19-C , 80-H ) :   0.9448 B( 19-C , 81-H ) :   0.9478 B( 20-C , 82-H ) :   0.9643
B( 20-C , 83-H ) :   0.9664 B( 20-C , 84-H ) :   0.9657 B( 21-C , 85-H ) :   0.9676
B( 21-C , 86-H ) :   0.9668 B( 21-C , 87-H ) :   0.9649 B( 22-C , 24-C ) :   1.0986
B( 22-C , 88-H ) :   0.9456 B( 22-C , 89-H ) :   0.9458 B( 23-C , 25-C ) :   1.1010
B( 23-C , 90-H ) :   0.9477 B( 23-C , 91-H ) :   0.9462 B( 24-C , 92-H ) :   0.9655
B( 24-C , 93-H ) :   0.9671 B( 24-C , 94-H ) :   0.9674 B( 25-C , 95-H ) :   0.9642
B( 25-C , 96-H ) :   0.9657 B( 25-C , 97-H ) :   0.9661 B( 26-C , 28-C ) :   1.4956
B( 26-C , 98-H ) :   0.9391 B( 27-C , 61-S ) :   1.1720 B( 27-C , 64-C ) :   1.3118
B( 28-C , 29-C ) :   0.9861 B( 28-C , 32-C ) :   1.1070 B( 29-C , 30-C ) :   0.9677
B( 29-C , 37-O ) :   2.1309 B( 30-C , 31-C ) :   1.3469 B( 30-C , 33-C ) :   1.3435
B( 31-C , 32-C ) :   1.0119 B( 31-C , 36-C ) :   1.3339 B( 32-C , 38-C ) :   1.6319
B( 33-C , 34-C ) :   1.3255 B( 33-C , 99-H ) :   1.0165 B( 34-C , 35-C ) :   1.2949
B( 34-C , 44-F ) :   1.1001 B( 35-C , 36-C ) :   1.3480 B( 35-C , 43-F ) :   1.1151
B( 36-C ,100-H ) :   0.9896 B( 38-C , 39-C ) :   1.1350 B( 38-C , 40-C ) :   1.1306
B( 39-C , 41-N ) :   2.9529 B( 40-C , 42-N ) :   2.9734 B( 45-C , 46-C ) :   1.5249
B( 45-C , 62-C ) :   1.3186 B( 45-C ,101-H ) :   0.9373 B( 46-C , 47-C ) :   0.9929
B( 46-C , 50-C ) :   1.1000 B( 47-C , 48-C ) :   0.9693 B( 47-C , 55-O ) :   2.0808
B( 48-C , 49-C ) :   1.3331 B( 48-C , 51-C ) :   1.4085 B( 49-C , 50-C ) :   0.9983
B( 49-C , 54-C ) :   1.3983 B( 50-C , 56-C ) :   1.6334 B( 51-C , 52-C ) :   1.3527
B( 51-C ,102-H ) :   1.0044 B( 52-C , 53-C ) :   1.3941 B( 52-C ,103-H ) :   0.9899
B( 53-C , 54-C ) :   1.3826 B( 53-C ,104-H ) :   0.9851 B( 54-C ,105-H ) :   0.9826
B( 56-C , 57-C ) :   1.1344 B( 56-C , 58-C ) :   1.1332 B( 57-C , 60-N ) :   2.9527
B( 58-C , 59-N ) :   2.9700 B( 61-S , 62-C ) :   1.0654 B( 62-C , 63-C ) :   1.3872
B( 63-C , 64-C ) :   1.3015 B( 63-C , 65-S ) :   1.1100 B( 64-C , 67-C ) :   1.1165
B( 65-S , 66-C ) :   1.0672 B( 66-C , 67-C ) :   1.5822 B( 66-C , 69-C ) :   0.9606
B( 67-C , 68-F ) :   1.1647 B( 69-C , 70-O ) :   2.1052 B( 69-C , 71-O ) :   1.2539
B( 71-O , 72-C ) :   0.8853 B( 72-C , 73-C ) :   1.1047 B( 72-C ,106-H ) :   0.9517
B( 72-C ,107-H ) :   0.9641 B( 73-C ,108-H ) :   0.9692 B( 73-C ,109-H ) :   0.9691
B( 73-C ,110-H ) :   0.9699

-----------------------------------------------------------------------------
         ABSORPTION SPECTRUM VIA TRANSITION ELECTRIC DIPOLE MOMENTS
-----------------------------------------------------------------------------
State   Energy  Wavelength   fosc         T2         TX        TY        TZ
        (cm-1)    (nm)                  (au**2)     (au)      (au)      (au)
-----------------------------------------------------------------------------
   0   18110.5    552.2   3.296332475  59.92045  -7.42685  -2.14311  -0.41161
   1   25160.8    397.4   0.348334908   4.55773   0.84220   1.46066   1.30954
   2   28054.6    356.4   0.023737770   0.27856  -0.01776   0.41442   0.32634
   3   29666.4    337.1   0.132223680   1.46731   0.08810   1.02195   0.64432
   4   30580.9    327.0   0.105779003   1.13874  -0.81449   0.60489   0.33085
   5   32398.2    308.7   0.021826582   0.22179   0.34664  -0.29104  -0.13010
   6   34464.3    290.2   0.047014905   0.44910  -0.61094   0.21666   0.17004
   7   35371.6    282.7   0.094968240   0.88389   0.14897   0.83830   0.39869
   8   36724.1    272.3   0.586686638   5.25933   0.18497  -1.99705  -1.11217
   9   36986.9    270.4   0.195102764   1.73656   0.50451  -1.02955  -0.64966
  10   38624.7    258.9   0.593543584   5.05898  -0.58675  -1.95649  -0.94173
  11   39408.7    253.8   0.275616840   2.30245   1.38096  -0.53625  -0.32837
  12   40278.1    248.3   0.093320204   0.76275   0.21592  -0.74169  -0.40746

Dispersion correction           -0.066934286
FINAL SINGLE POINT ENERGY     -4679.057501473560

DIPOLE MOMENT
-------------
                                X             Y             Z
Electronic contribution:      6.48848      30.13201      20.07452
Nuclear contribution   :     -6.56207     -28.64834     -19.67796
                        -----------------------------------------
Total Dipole Moment    :     -0.07359       1.48367       0.39656
                        -----------------------------------------
Magnitude (a.u.)       :      1.53751
Magnitude (Debye)      :      3.90804

Rotational constants in cm-1:     0.001527     0.000252     0.000218
Rotational constants in MHz :    45.789616     7.539904     6.537901

                             ****ORCA TERMINATED NORMALLY****
TOTAL RUN TIME: 0 days 0 hours 17 minutes 22 seconds 188 msec
