                         Program Version 4.2.0 -  RELEASE  -
|  1> # ORCA input file
|  2> # SCF done       -161.109052842562          0.000843444458
|  3> ! wb97x-d3 def2-SVP def2/J RIJCOSX Grid4 TightSCF
|  4> %maxcore 5000
|  5> %tddft
|  6>     Mode sTDA
|  7>     Ethresh 5.0
|  8>     maxcore 5000
|  9> end
| 10>
| 11> %pal
| 12>   nprocs 6
| 13>   end
| 14> * xyz 0 1
| 15>    C        0.67519        -0.34297         0.26593
| 16>    C        0.86403        -0.36355         1.63098
| 17>    C        0.88743         0.80943         2.49236
| 18>    C        1.09489         0.31385         3.86617
| 19>    C        1.19943        -1.08784         3.83716
| 20>    C        1.05796        -1.54202         2.45102
| 21>    C        1.18484         1.03530         5.03980
| 22>    C        1.38702         0.32765         6.21410
| 23>    C        1.49601        -1.06276         6.19591
| 24>    C        1.40438        -1.78687         5.01546
| 25>    O        0.76114         1.98110         2.16173
| 26>    C        1.10287        -2.84966         2.04404
| 27>    C        0.97572        -3.30433         0.71412
| 28>    C        1.28467        -3.94455         2.91653
| 29>    F        1.69338        -1.71998         7.34353
| 30>    F        1.47906         0.98451         7.37622
| 31>    N        1.42510        -4.87877         3.56780
| 32>    N        0.88430        -3.75847        -0.33693
| 33>    C        0.47260         0.72793        -0.60889
| 34>    C        0.28762         0.50828        -1.98225
| 35>    C        0.08945         1.62654        -2.76259
| 36>    C        0.10453         2.83229        -2.06623
| 37>   Se        0.39462         2.57896        -0.23456
| 38>    C       -0.08237         4.11265        -2.63422
| 39>    S       -0.37459         4.34652        -4.33005
| 40>    C       -0.49873         6.07790        -4.13605
| 41>    C       -0.31002         6.43448        -2.80147
| 42>    C       -0.08551         5.32685        -1.98081
| 43>    C       -0.32569         7.81463        -2.22491
| 44>    C        1.08485         8.40714        -2.18101
| 45>    C       -0.75026         6.90618        -5.26820
| 46>    S       -0.35932         8.60701        -5.20391
| 47>    C       -0.91666         8.86787        -6.82414
| 48>    C       -1.37254         7.68601        -7.36806
| 49>    C       -1.28246         6.58137        -6.51416
| 50>    C       -1.73227         5.23010        -6.97277
| 51>    C       -0.60358         4.49170        -7.69571
| 52>    C       -0.87276        10.16783        -7.38734
| 53>    C       -1.21772        10.54235        -8.67761
| 54>    C       -1.10231        11.89848        -8.94858
| 55>    C       -0.62055        12.69387        -7.91398
| 56>   Se       -0.30971        11.63950        -6.37984
| 57>    C       -0.53531        14.09900        -7.96602
| 58>    C        0.02990        14.97367        -7.08031
| 59>    C       -0.44530        16.37804        -7.03222
| 60>    C        0.02337        16.89385        -5.72251
| 61>    C        0.82964        15.92533        -5.09835
| 62>    C        0.97383        14.78509        -6.00363
| 63>    C       -0.25621        18.10481        -5.12099
| 64>    C        0.27641        18.33661        -3.86225
| 65>    C        1.06710        17.37441        -3.23296
| 66>    C        1.35959        16.16247        -3.84115
| 67>    O       -1.11352        16.95465        -7.85788
| 68>    C        2.01457        13.89005        -5.98603
| 69>    C        2.29698        13.03064        -7.06898
| 70>    C        2.96504        13.80908        -4.94902
| 71>    F        1.55253        17.62084        -2.01125
| 72>    F        0.02571        19.49499        -3.24064
| 73>    N        3.74671        13.69408        -4.11664
| 74>    N        2.57880        12.35528        -7.95370
| 75>    H        0.67686        -1.30538        -0.23348
| 76>    H        1.10188         2.11023         5.04890
| 77>    H        1.49525        -2.85965         5.05774
| 78>    H        0.30060        -0.49062        -2.38721
| 79>    H       -0.06656         1.58585        -3.82848
| 80>    H        0.07064         5.39666        -0.91523
| 81>    H       -0.98451         8.46800        -2.79813
| 82>    H       -0.71509         7.75473        -1.20636
| 83>    H        1.51081         8.47069        -3.17928
| 84>    H        1.05678         9.40649        -1.75556
| 85>    H        1.73474         7.78606        -1.56911
| 86>    H       -1.77401         7.61806        -8.36327
| 87>    H       -2.08396         4.63346        -6.13056
| 88>    H       -2.56802         5.36233        -7.66320
| 89>    H        0.24839         4.34971        -7.03581
| 90>    H       -0.94871         3.51683        -8.02917
| 91>    H       -0.27531         5.06060        -8.56241
| 92>    H       -1.55255         9.82831        -9.40971
| 93>    H       -1.34228        12.32121        -9.90996
| 94>    H       -1.09061        14.56844        -8.77375
| 95>    H       -0.86719        18.84876        -5.60681
| 96>    H        1.97262        15.44611        -3.31862
| 97> *
| 98>
| 99>                          ****END OF INPUT****

CARTESIAN COORDINATES (ANGSTROEM)
---------------------------------
  C      0.675190   -0.342970    0.265930
  C      0.864030   -0.363550    1.630980
  C      0.887430    0.809430    2.492360
  C      1.094890    0.313850    3.866170
  C      1.199430   -1.087840    3.837160
  C      1.057960   -1.542020    2.451020
  C      1.184840    1.035300    5.039800
  C      1.387020    0.327650    6.214100
  C      1.496010   -1.062760    6.195910
  C      1.404380   -1.786870    5.015460
  O      0.761140    1.981100    2.161730
  C      1.102870   -2.849660    2.044040
  C      0.975720   -3.304330    0.714120
  C      1.284670   -3.944550    2.916530
  F      1.693380   -1.719980    7.343530
  F      1.479060    0.984510    7.376220
  N      1.425100   -4.878770    3.567800
  N      0.884300   -3.758470   -0.336930
  C      0.472600    0.727930   -0.608890
  C      0.287620    0.508280   -1.982250
  C      0.089450    1.626540   -2.762590
  C      0.104530    2.832290   -2.066230
  Se     0.394620    2.578960   -0.234560
  C     -0.082370    4.112650   -2.634220
  S     -0.374590    4.346520   -4.330050
  C     -0.498730    6.077900   -4.136050
  C     -0.310020    6.434480   -2.801470
  C     -0.085510    5.326850   -1.980810
  C     -0.325690    7.814630   -2.224910
  C      1.084850    8.407140   -2.181010
  C     -0.750260    6.906180   -5.268200
  S     -0.359320    8.607010   -5.203910
  C     -0.916660    8.867870   -6.824140
  C     -1.372540    7.686010   -7.368060
  C     -1.282460    6.581370   -6.514160
  C     -1.732270    5.230100   -6.972770
  C     -0.603580    4.491700   -7.695710
  C     -0.872760   10.167830   -7.387340
  C     -1.217720   10.542350   -8.677610
  C     -1.102310   11.898480   -8.948580
  C     -0.620550   12.693870   -7.913980
  Se    -0.309710   11.639500   -6.379840
  C     -0.535310   14.099000   -7.966020
  C      0.029900   14.973670   -7.080310
  C     -0.445300   16.378040   -7.032220
  C      0.023370   16.893850   -5.722510
  C      0.829640   15.925330   -5.098350
  C      0.973830   14.785090   -6.003630
  C     -0.256210   18.104810   -5.120990
  C      0.276410   18.336610   -3.862250
  C      1.067100   17.374410   -3.232960
  C      1.359590   16.162470   -3.841150
  O     -1.113520   16.954650   -7.857880
  C      2.014570   13.890050   -5.986030
  C      2.296980   13.030640   -7.068980
  C      2.965040   13.809080   -4.949020
  F      1.552530   17.620840   -2.011250
  F      0.025710   19.494990   -3.240640
  N      3.746710   13.694080   -4.116640
  N      2.578800   12.355280   -7.953700
  H      0.676860   -1.305380   -0.233480
  H      1.101880    2.110230    5.048900
  H      1.495250   -2.859650    5.057740
  H      0.300600   -0.490620   -2.387210
  H     -0.066560    1.585850   -3.828480
  H      0.070640    5.396660   -0.915230
  H     -0.984510    8.468000   -2.798130
  H     -0.715090    7.754730   -1.206360
  H      1.510810    8.470690   -3.179280
  H      1.056780    9.406490   -1.755560
  H      1.734740    7.786060   -1.569110
  H     -1.774010    7.618060   -8.363270
  H     -2.083960    4.633460   -6.130560
  H     -2.568020    5.362330   -7.663200
  H      0.248390    4.349710   -7.035810
  H     -0.948710    3.516830   -8.029170
  H     -0.275310    5.060600   -8.562410
  H     -1.552550    9.828310   -9.409710
  H     -1.342280   12.321210   -9.909960
  H     -1.090610   14.568440   -8.773750
  H     -0.867190   18.848760   -5.606810
  H      1.972620   15.446110   -3.318620

 Total Charge           Charge          ....    0
 Multiplicity           Mult            ....    1
 Number of Electrons    NEL             ....  478
 Basis Dimension        Dim             ....  994

ORBITAL ENERGIES
----------------

  NO   OCC          E(Eh)            E(eV)
   0   2.0000    -453.954912    -12352.7411
   1   2.0000    -453.948105    -12352.5559
   2   2.0000     -88.998895     -2421.7830
   3   2.0000     -88.997662     -2421.7495
   4   2.0000     -58.208771     -1583.9412
   5   2.0000     -58.200712     -1583.7219
   6   2.0000     -52.263661     -1422.1665
   7   2.0000     -52.262953     -1422.1472
   8   2.0000     -52.261994     -1422.1212
   9   2.0000     -52.255855     -1421.9541
  10   2.0000     -52.254573     -1421.9192
  11   2.0000     -52.253872     -1421.9001
  12   2.0000     -24.836038      -675.8229
  13   2.0000     -24.835226      -675.8009
  14   2.0000     -24.835034      -675.7956
  15   2.0000     -24.834501      -675.7811
  16   2.0000     -19.267203      -524.2873
  17   2.0000     -19.255917      -523.9801
  18   2.0000     -14.456086      -393.3701
  19   2.0000     -14.455188      -393.3457
  20   2.0000     -14.451984      -393.2585
  21   2.0000     -14.450836      -393.2272
  22   2.0000     -10.422045      -283.5983
  23   2.0000     -10.422045      -283.5983
  24   2.0000     -10.421596      -283.5860
  25   2.0000     -10.421185      -283.5749
  26   2.0000     -10.412488      -283.3382
  27   2.0000     -10.406950      -283.1875
  28   2.0000     -10.385247      -282.5969
  29   2.0000     -10.384407      -282.5741
  30   2.0000     -10.383558      -282.5510
  31   2.0000     -10.380797      -282.4759
  32   2.0000     -10.370996      -282.2091
  33   2.0000     -10.364248      -282.0255
  34   2.0000     -10.362516      -281.9784
  35   2.0000     -10.361817      -281.9594
  36   2.0000     -10.360925      -281.9351
  37   2.0000     -10.358980      -281.8822
  38   2.0000     -10.357621      -281.8452
  39   2.0000     -10.357049      -281.8296
  40   2.0000     -10.355633      -281.7911
  41   2.0000     -10.354566      -281.7621
  42   2.0000     -10.354349      -281.7562
  43   2.0000     -10.353974      -281.7460
  44   2.0000     -10.353906      -281.7441
  45   2.0000     -10.353231      -281.7257
  46   2.0000     -10.351456      -281.6774
  47   2.0000     -10.350848      -281.6609
  48   2.0000     -10.345777      -281.5229
  49   2.0000     -10.345304      -281.5100
  50   2.0000     -10.344722      -281.4942
  51   2.0000     -10.344550      -281.4895
  52   2.0000     -10.339831      -281.3611
  53   2.0000     -10.339303      -281.3467
  54   2.0000     -10.339055      -281.3400
  55   2.0000     -10.336161      -281.2612
  56   2.0000     -10.332698      -281.1670
  57   2.0000     -10.332497      -281.1615
  58   2.0000     -10.330820      -281.1159
  59   2.0000     -10.329422      -281.0779
  60   2.0000     -10.326593      -281.0009
  61   2.0000     -10.326248      -280.9915
  62   2.0000     -10.323936      -280.9286
  63   2.0000     -10.321539      -280.8634
  64   2.0000     -10.316350      -280.7222
  65   2.0000     -10.314302      -280.6664
  66   2.0000     -10.299986      -280.2769
  67   2.0000     -10.296693      -280.1873
  68   2.0000      -8.112353      -220.7484
  69   2.0000      -8.110838      -220.7071
  70   2.0000      -7.978201      -217.0979
  71   2.0000      -7.970276      -216.8822
  72   2.0000      -6.072004      -165.2276
  73   2.0000      -6.070495      -165.1866
  74   2.0000      -6.067612      -165.1081
  75   2.0000      -6.066135      -165.0679
  76   2.0000      -6.064628      -165.0269
  77   2.0000      -6.063096      -164.9852
  78   2.0000      -5.922299      -161.1540
  79   2.0000      -5.918151      -161.0411
  80   2.0000      -5.914457      -160.9405
  81   2.0000      -5.912899      -160.8982
  82   2.0000      -5.909747      -160.8124
  83   2.0000      -5.904995      -160.6831
  84   2.0000      -2.272900       -61.8487
  85   2.0000      -2.272520       -61.8384
  86   2.0000      -2.267549       -61.7031
  87   2.0000      -2.264910       -61.6313
  88   2.0000      -2.264244       -61.6132
  89   2.0000      -2.264104       -61.6094
  90   2.0000      -2.263651       -61.5971
  91   2.0000      -2.259691       -61.4893
  92   2.0000      -2.255880       -61.3856
  93   2.0000      -2.255581       -61.3775
  94   2.0000      -1.365907       -37.1682
  95   2.0000      -1.365680       -37.1620
  96   2.0000      -1.350826       -36.7578
  97   2.0000      -1.350604       -36.7518
  98   2.0000      -1.181996       -32.1637
  99   2.0000      -1.174317       -31.9548
 100   2.0000      -1.063761       -28.9464
 101   2.0000      -1.063708       -28.9450
 102   2.0000      -1.053519       -28.6677
 103   2.0000      -1.045350       -28.4454
 104   2.0000      -1.043249       -28.3882
 105   2.0000      -1.037317       -28.2268
 106   2.0000      -1.035062       -28.1655
 107   2.0000      -1.033720       -28.1290
 108   2.0000      -1.017750       -27.6944
 109   2.0000      -1.011333       -27.5198
 110   2.0000      -0.998258       -27.1640
 111   2.0000      -0.997262       -27.1369
 112   2.0000      -0.953384       -25.9429
 113   2.0000      -0.949968       -25.8499
 114   2.0000      -0.942853       -25.6563
 115   2.0000      -0.941919       -25.6309
 116   2.0000      -0.930499       -25.3202
 117   2.0000      -0.922535       -25.1035
 118   2.0000      -0.915907       -24.9231
 119   2.0000      -0.915726       -24.9182
 120   2.0000      -0.913801       -24.8658
 121   2.0000      -0.889883       -24.2150
 122   2.0000      -0.876156       -23.8414
 123   2.0000      -0.870384       -23.6843
 124   2.0000      -0.865718       -23.5574
 125   2.0000      -0.854931       -23.2639
 126   2.0000      -0.853294       -23.2193
 127   2.0000      -0.841516       -22.8988
 128   2.0000      -0.822976       -22.3943
 129   2.0000      -0.816078       -22.2066
 130   2.0000      -0.812637       -22.1130
 131   2.0000      -0.806395       -21.9431
 132   2.0000      -0.777255       -21.1502
 133   2.0000      -0.771883       -21.0040
 134   2.0000      -0.761642       -20.7253
 135   2.0000      -0.753809       -20.5122
 136   2.0000      -0.750894       -20.4329
 137   2.0000      -0.745135       -20.2761
 138   2.0000      -0.740061       -20.1381
 139   2.0000      -0.733916       -19.9709
 140   2.0000      -0.723569       -19.6893
 141   2.0000      -0.721480       -19.6325
 142   2.0000      -0.704340       -19.1661
 143   2.0000      -0.701293       -19.0832
 144   2.0000      -0.691688       -18.8218
 145   2.0000      -0.684196       -18.6179
 146   2.0000      -0.682788       -18.5796
 147   2.0000      -0.679347       -18.4860
 148   2.0000      -0.678764       -18.4701
 149   2.0000      -0.667232       -18.1563
 150   2.0000      -0.660213       -17.9653
 151   2.0000      -0.657466       -17.8906
 152   2.0000      -0.655272       -17.8309
 153   2.0000      -0.644826       -17.5466
 154   2.0000      -0.642523       -17.4839
 155   2.0000      -0.642373       -17.4799
 156   2.0000      -0.635837       -17.3020
 157   2.0000      -0.632304       -17.2059
 158   2.0000      -0.626271       -17.0417
 159   2.0000      -0.625836       -17.0299
 160   2.0000      -0.620858       -16.8944
 161   2.0000      -0.613768       -16.7015
 162   2.0000      -0.592711       -16.1285
 163   2.0000      -0.590418       -16.0661
 164   2.0000      -0.588712       -16.0197
 165   2.0000      -0.587757       -15.9937
 166   2.0000      -0.585986       -15.9455
 167   2.0000      -0.585027       -15.9194
 168   2.0000      -0.584873       -15.9152
 169   2.0000      -0.582563       -15.8523
 170   2.0000      -0.580664       -15.8007
 171   2.0000      -0.577146       -15.7049
 172   2.0000      -0.575478       -15.6596
 173   2.0000      -0.570455       -15.5229
 174   2.0000      -0.568877       -15.4799
 175   2.0000      -0.565445       -15.3865
 176   2.0000      -0.563049       -15.3213
 177   2.0000      -0.556309       -15.1379
 178   2.0000      -0.552395       -15.0314
 179   2.0000      -0.546956       -14.8834
 180   2.0000      -0.544101       -14.8057
 181   2.0000      -0.539580       -14.6827
 182   2.0000      -0.538575       -14.6554
 183   2.0000      -0.537270       -14.6199
 184   2.0000      -0.535269       -14.5654
 185   2.0000      -0.534426       -14.5425
 186   2.0000      -0.532496       -14.4900
 187   2.0000      -0.530410       -14.4332
 188   2.0000      -0.525948       -14.3118
 189   2.0000      -0.523730       -14.2514
 190   2.0000      -0.521766       -14.1980
 191   2.0000      -0.520000       -14.1499
 192   2.0000      -0.514705       -14.0058
 193   2.0000      -0.508352       -13.8330
 194   2.0000      -0.506278       -13.7765
 195   2.0000      -0.499458       -13.5910
 196   2.0000      -0.496176       -13.5016
 197   2.0000      -0.494521       -13.4566
 198   2.0000      -0.493217       -13.4211
 199   2.0000      -0.491353       -13.3704
 200   2.0000      -0.490949       -13.3594
 201   2.0000      -0.487959       -13.2780
 202   2.0000      -0.487538       -13.2666
 203   2.0000      -0.486052       -13.2261
 204   2.0000      -0.484499       -13.1839
 205   2.0000      -0.480711       -13.0808
 206   2.0000      -0.480118       -13.0647
 207   2.0000      -0.475645       -12.9430
 208   2.0000      -0.472382       -12.8542
 209   2.0000      -0.466861       -12.7039
 210   2.0000      -0.465867       -12.6769
 211   2.0000      -0.465778       -12.6745
 212   2.0000      -0.463559       -12.6141
 213   2.0000      -0.462181       -12.5766
 214   2.0000      -0.460102       -12.5200
 215   2.0000      -0.457552       -12.4506
 216   2.0000      -0.454362       -12.3638
 217   2.0000      -0.451014       -12.2727
 218   2.0000      -0.449921       -12.2430
 219   2.0000      -0.445633       -12.1263
 220   2.0000      -0.444044       -12.0830
 221   2.0000      -0.440265       -11.9802
 222   2.0000      -0.432573       -11.7709
 223   2.0000      -0.427336       -11.6284
 224   2.0000      -0.411518       -11.1980
 225   2.0000      -0.391302       -10.6479
 226   2.0000      -0.385602       -10.4928
 227   2.0000      -0.382415       -10.4060
 228   2.0000      -0.376742       -10.2517
 229   2.0000      -0.374601       -10.1934
 230   2.0000      -0.367523       -10.0008
 231   2.0000      -0.365251        -9.9390
 232   2.0000      -0.358358        -9.7514
 233   2.0000      -0.352942        -9.6040
 234   2.0000      -0.350609        -9.5406
 235   2.0000      -0.348896        -9.4940
 236   2.0000      -0.339424        -9.2362
 237   2.0000      -0.309484        -8.4215
 238   2.0000      -0.274824        -7.4784
 239   0.0000      -0.084311        -2.2942
 240   0.0000      -0.071862        -1.9555
 241   0.0000      -0.046941        -1.2773
 242   0.0000      -0.040755        -1.1090
 243   0.0000      -0.017466        -0.4753

MULLIKEN ATOMIC CHARGES
-----------------------
   0 C :    0.025205
   1 C :   -0.151123
   2 C :    0.241484
   3 C :   -0.052753
   4 C :    0.024413
   5 C :    0.291009
   6 C :   -0.093295
   7 C :    0.240681
   8 C :    0.244720
   9 C :   -0.087167
  10 O :   -0.229650
  11 C :   -0.374666
  12 C :   -0.128971
  13 C :   -0.133809
  14 F :   -0.178215
  15 F :   -0.182825
  16 N :    0.113206
  17 N :    0.099709
  18 C :   -0.140336
  19 C :    0.016745
  20 C :   -0.033283
  21 C :   -0.097687
  22 Se:    0.328489
  23 C :   -0.037499
  24 S :    0.116676
  25 C :   -0.104000
  26 C :   -0.067241
  27 C :   -0.039102
  28 C :    0.008828
  29 C :   -0.021813
  30 C :   -0.096989
  31 S :    0.105020
  32 C :   -0.036177
  33 C :   -0.019939
  34 C :   -0.075026
  35 C :    0.006052
  36 C :   -0.021041
  37 C :   -0.069982
  38 C :   -0.023332
  39 C :    0.041645
  40 C :   -0.151022
  41 Se:    0.248638
  42 C :    0.074227
  43 C :   -0.178013
  44 C :    0.204998
  45 C :   -0.040942
  46 C :    0.008831
  47 C :    0.217133
  48 C :   -0.094085
  49 C :    0.238995
  50 C :    0.245408
  51 C :   -0.087998
  52 O :   -0.166994
  53 C :   -0.351322
  54 C :   -0.152081
  55 C :   -0.113855
  56 F :   -0.179796
  57 F :   -0.182953
  58 N :    0.113614
  59 N :    0.134185
  60 H :    0.033748
  61 H :    0.042987
  62 H :    0.047379
  63 H :    0.041868
  64 H :    0.024700
  65 H :    0.019906
  66 H :    0.042430
  67 H :    0.035798
  68 H :    0.039310
  69 H :    0.045989
  70 H :    0.034516
  71 H :    0.006283
  72 H :    0.043051
  73 H :    0.035878
  74 H :    0.037303
  75 H :    0.043247
  76 H :    0.033012
  77 H :    0.021501
  78 H :    0.033271
  79 H :    0.051395
  80 H :    0.045377
  81 H :    0.046123
Sum of atomic charges:    0.0000000

LOEWDIN ATOMIC CHARGES
----------------------
   0 C :    0.075053
   1 C :   -0.132881
   2 C :    0.100708
   3 C :   -0.049637
   4 C :   -0.017281
   5 C :    0.081126
   6 C :   -0.006350
   7 C :    0.073990
   8 C :    0.078038
   9 C :   -0.017429
  10 O :   -0.167334
  11 C :   -0.146942
  12 C :   -0.015156
  13 C :   -0.015112
  14 F :   -0.046076
  15 F :   -0.048713
  16 N :   -0.051942
  17 N :   -0.054202
  18 C :   -0.182734
  19 C :    0.005530
  20 C :   -0.075651
  21 C :   -0.139566
  22 Se:    0.454909
  23 C :   -0.192339
  24 S :    0.465446
  25 C :   -0.180011
  26 C :   -0.051205
  27 C :   -0.041344
  28 C :   -0.044748
  29 C :   -0.053807
  30 C :   -0.178401
  31 S :    0.462266
  32 C :   -0.192018
  33 C :   -0.037094
  34 C :   -0.051858
  35 C :   -0.044114
  36 C :   -0.054228
  37 C :   -0.129539
  38 C :   -0.061991
  39 C :    0.005124
  40 C :   -0.177181
  41 Se:    0.423827
  42 C :    0.068109
  43 C :   -0.120650
  44 C :    0.092553
  45 C :   -0.051759
  46 C :   -0.016884
  47 C :    0.062655
  48 C :   -0.005459
  49 C :    0.073272
  50 C :    0.078345
  51 C :   -0.021577
  52 O :   -0.144783
  53 C :   -0.150454
  54 C :   -0.032286
  55 C :   -0.016496
  56 F :   -0.047123
  57 F :   -0.049165
  58 N :   -0.049794
  59 N :   -0.042926
  60 H :    0.052122
  61 H :    0.055769
  62 H :    0.054480
  63 H :    0.043487
  64 H :    0.029847
  65 H :    0.032323
  66 H :    0.018137
  67 H :    0.036278
  68 H :    0.018154
  69 H :    0.030395
  70 H :    0.027777
  71 H :    0.033504
  72 H :    0.018881
  73 H :    0.035593
  74 H :    0.017903
  75 H :    0.029084
  76 H :    0.027043
  77 H :    0.036372
  78 H :    0.042327
  79 H :    0.055697
  80 H :    0.056561
  81 H :    0.053559

  Mayer bond orders larger than 0.100000
B(  0-C ,  1-C ) :   1.4957 B(  0-C , 18-C ) :   1.2995 B(  0-C , 60-H ) :   0.9407
B(  1-C ,  2-C ) :   1.0106 B(  1-C ,  5-C ) :   1.0975 B(  2-C ,  3-C ) :   0.9804
B(  2-C , 10-O ) :   2.0602 B(  3-C ,  4-C ) :   1.3433 B(  3-C ,  6-C ) :   1.3432
B(  4-C ,  5-C ) :   1.0144 B(  4-C ,  9-C ) :   1.3403 B(  5-C , 11-C ) :   1.6414
B(  6-C ,  7-C ) :   1.3273 B(  6-C , 61-H ) :   1.0150 B(  7-C ,  8-C ) :   1.2947
B(  7-C , 15-F ) :   1.1020 B(  8-C ,  9-C ) :   1.3457 B(  8-C , 14-F ) :   1.1166
B(  9-C , 62-H ) :   0.9880 B( 10-O , 22-Se) :   0.1224 B( 11-C , 12-C ) :   1.1335
B( 11-C , 13-C ) :   1.1282 B( 12-C , 17-N ) :   2.9551 B( 13-C , 16-N ) :   2.9749
B( 18-C , 19-C ) :   1.3547 B( 18-C , 22-Se) :   1.0623 B( 19-C , 20-C ) :   1.3687
B( 19-C , 63-H ) :   0.9993 B( 20-C , 21-C ) :   1.4107 B( 20-C , 64-H ) :   0.9948
B( 21-C , 22-Se) :   1.1084 B( 21-C , 23-C ) :   1.1816 B( 23-C , 24-S ) :   1.1153
B( 23-C , 27-C ) :   1.4817 B( 24-S , 25-C ) :   1.1336 B( 25-C , 26-C ) :   1.4965
B( 25-C , 30-C ) :   1.1303 B( 26-C , 27-C ) :   1.3080 B( 26-C , 28-C ) :   1.0500
B( 27-C , 65-H ) :   0.9870 B( 28-C , 29-C ) :   1.0814 B( 28-C , 66-H ) :   0.9236
B( 28-C , 67-H ) :   0.9299 B( 29-C , 68-H ) :   0.9701 B( 29-C , 69-H ) :   0.9723
B( 29-C , 70-H ) :   0.9719 B( 30-C , 31-S ) :   1.1348 B( 30-C , 32-C ) :   0.1001
B( 30-C , 34-C ) :   1.4995 B( 31-S , 32-C ) :   1.1218 B( 32-C , 33-C ) :   1.4957
B( 32-C , 37-C ) :   1.1391 B( 33-C , 34-C ) :   1.2991 B( 33-C , 71-H ) :   0.9946
B( 34-C , 35-C ) :   1.0489 B( 35-C , 36-C ) :   1.0835 B( 35-C , 72-H ) :   0.9242
B( 35-C , 73-H ) :   0.9315 B( 36-C , 74-H ) :   0.9699 B( 36-C , 75-H ) :   0.9724
B( 36-C , 76-H ) :   0.9718 B( 37-C , 38-C ) :   1.4890 B( 37-C , 41-Se) :   1.1343
B( 38-C , 39-C ) :   1.3194 B( 38-C , 77-H ) :   0.9952 B( 39-C , 40-C ) :   1.4362
B( 39-C , 78-H ) :   0.9961 B( 40-C , 41-Se) :   1.0689 B( 40-C , 42-C ) :   1.1934
B( 42-C , 43-C ) :   1.6280 B( 42-C , 79-H ) :   0.9461 B( 43-C , 44-C ) :   0.9596
B( 43-C , 47-C ) :   1.0621 B( 44-C , 45-C ) :   0.9303 B( 44-C , 52-O ) :   2.2466
B( 45-C , 46-C ) :   1.3433 B( 45-C , 48-C ) :   1.3476 B( 46-C , 47-C ) :   1.0280
B( 46-C , 51-C ) :   1.3418 B( 47-C , 53-C ) :   1.6499 B( 48-C , 49-C ) :   1.3345
B( 48-C , 80-H ) :   1.0139 B( 49-C , 50-C ) :   1.2937 B( 49-C , 57-F ) :   1.1015
B( 50-C , 51-C ) :   1.3476 B( 50-C , 56-F ) :   1.1096 B( 51-C , 81-H ) :   0.9925
B( 53-C , 54-C ) :   1.1401 B( 53-C , 55-C ) :   1.1191 B( 54-C , 59-N ) :   3.0163
B( 55-C , 58-N ) :   2.9940

-----------------------------------------------------------------------------
         ABSORPTION SPECTRUM VIA TRANSITION ELECTRIC DIPOLE MOMENTS
-----------------------------------------------------------------------------
State   Energy  Wavelength   fosc         T2         TX        TY        TZ
        (cm-1)    (nm)                  (au**2)     (au)      (au)      (au)
-----------------------------------------------------------------------------
   0   17916.6    558.1   2.338157229  42.96297  -0.17270  -5.84618   2.95895
   1   24348.7    410.7   0.843585051  11.40589   1.71120  -0.89414   2.77096
   2   28817.3    347.0   0.085160701   0.97289   0.37961  -0.30598   0.85741
   3   29732.3    336.3   0.017848736   0.19763   0.42674  -0.03557   0.11941
   4   30226.1    330.8   0.032981753   0.35923   0.02767  -0.35767  -0.48013
   5   31932.4    313.2   0.018744906   0.19325  -0.04000   0.39375  -0.19134
   6   32787.1    305.0   0.049698843   0.49902  -0.49561   0.14922  -0.48076
   7   33288.6    300.4   0.045470342   0.44969  -0.24829  -0.51410  -0.35176
   8   34191.2    292.5   0.163934694   1.57846   0.86904  -0.51053   0.75006
   9   35066.2    285.2   0.096087519   0.90210   0.60375  -0.71464   0.16393
  10   36406.1    274.7   0.505842226   4.57422   0.04432  -1.66173  -1.34570
  11   36699.1    272.5   0.178777490   1.60374   0.11236  -0.98341  -0.78994
  12   37116.3    269.4   0.098043648   0.86962   0.23396  -0.80558  -0.40734
  13   38341.0    260.8   0.700333141   6.01335  -0.37585   2.17316   1.07214
  14   38651.6    258.7   0.102438811   0.87251  -0.55889   0.74206  -0.09750
  15   39315.9    254.4   0.099511688   0.83326   0.58549   0.17229   0.67881
  16   39742.2    251.6   0.241379174   1.99951   0.10632  -0.88530  -1.09747
  17   39834.5    251.0   0.133731558   1.10522  -0.69669   0.76140   0.20028

Dispersion correction           -0.047347309
FINAL SINGLE POINT ENERGY     -8131.012234174827

DIPOLE MOMENT
-------------
                                X             Y             Z
Electronic contribution:      5.49499      16.78254      33.54327
Nuclear contribution   :     -7.65165     -15.59716     -34.97881
                        -----------------------------------------
Total Dipole Moment    :     -2.15666       1.18538      -1.43553
                        -----------------------------------------
Magnitude (a.u.)       :      2.84904
Magnitude (Debye)      :      7.24169

Rotational constants in cm-1:     0.002153     0.000301     0.000270
Rotational constants in MHz :    64.545242     9.026971     8.082205

                             ****ORCA TERMINATED NORMALLY****
TOTAL RUN TIME: 0 days 0 hours 8 minutes 29 seconds 405 msec
