                         Program Version 4.2.0 -  RELEASE  -
|  1> # ORCA input file
|  2> # SCF done       -173.935612403190          0.000883017934
|  3> ! wb97x-d3 def2-SVP def2/J RIJCOSX Grid4 TightSCF
|  4> %maxcore 5000
|  5> %tddft
|  6>     Mode sTDA
|  7>     Ethresh 5.0
|  8>     maxcore 5000
|  9> end
| 10>
| 11> %pal
| 12>   nprocs 6
| 13>   end
| 14> * xyz 0 1
| 15>    C       -0.13505         0.31433        -0.40913
| 16>    O       -0.34010         1.50773        -0.52981
| 17>    C       -0.85505        -0.60532         0.49632
| 18>    C       -1.87353        -0.31353         1.38148
| 19>    C       -2.38920        -1.35710         2.13302
| 20>    C       -1.88796        -2.65111         1.98907
| 21>    C       -0.86516        -2.94307         1.09842
| 22>    C       -0.34290        -1.90459         0.34334
| 23>    C        0.72183        -1.87716        -0.66160
| 24>    C        1.43182        -2.96993        -1.08491
| 25>    C        2.44956        -2.96562        -2.06239
| 26>    N        3.28573        -3.05169        -2.84502
| 27>    C        1.23313        -4.27994        -0.59766
| 28>    N        1.12249        -5.36657        -0.24545
| 29>    C        0.85798        -0.50481        -1.10932
| 30>    C        1.78132        -0.03960        -2.01280
| 31>    C        2.00036         1.25700        -2.49713
| 32>    C        3.03945         1.55924        -3.37626
| 33>    C        3.12280         2.89455        -3.75066
| 34>    C        2.11048         3.64876        -3.16394
| 35>    S        1.09551         2.70039        -2.12406
| 36>    C        1.83605         5.05653        -3.23098
| 37>    C       -0.24703        12.16992        -1.00698
| 38>    C       -0.10381        13.15409        -2.00469
| 39>    C       -0.66398        14.35603        -1.61806
| 40>    C       -1.25827        14.35589        -0.35216
| 41>    S       -1.07851        12.79054         0.38768
| 42>    C       -1.89776        15.47794         0.17893
| 43>    C       -2.56698        15.63925         1.37180
| 44>    C       -3.23084        16.84738         1.81239
| 45>    C       -3.26620        18.06441         1.18081
| 46>    C       -3.94164        19.19662         1.68355
| 47>    N       -4.46629        20.15489         2.03542
| 48>    C       -2.64081        18.37817        -0.04386
| 49>    N       -2.16492        18.71667        -1.03343
| 50>    C       -3.87432        16.55020         3.09463
| 51>    C       -4.65329        17.33032         3.93408
| 52>    C       -5.13299        16.75328         5.10133
| 53>    C       -4.84847        15.42997         5.43633
| 54>    C       -4.06982        14.64318         4.60259
| 55>    C       -3.59485        15.21795         3.44115
| 56>    C       -2.75911        14.60429         2.38721
| 57>    O       -2.33076        13.46342         2.38968
| 58>    F       -3.37621        -1.12165         3.00539
| 59>    F       -5.33292        14.91372         6.57298
| 60>    S        1.52098         5.85511        -1.71096
| 61>    C        1.20600         7.36051        -2.51471
| 62>    C        1.32640         7.21636        -3.87727
| 63>    C        1.67104         5.92167        -4.29670
| 64>    C        0.84211         8.51948        -1.77931
| 65>    C        0.60362         8.61671        -0.42654
| 66>    C        0.20949         9.88679         0.00308
| 67>    C        0.15468        10.81041        -1.04461
| 68>    S        0.60841        10.04858        -2.55599
| 69>    C        0.58946        12.93494        -3.31377
| 70>    C        0.83753        14.21150        -4.10877
| 71>    C        4.23712         3.42387        -4.60016
| 72>    C        4.22048         2.81911        -6.00499
| 73>    C        1.69372         5.54234        -5.74611
| 74>    C        0.62514         4.49621        -6.06489
| 75>    C       -0.10239        10.21334         1.42783
| 76>    C        0.26519         9.11370         2.41713
| 77>    F       -2.40336        -3.63951         2.72797
| 78>    F       -5.88929        17.49009         5.92333
| 79>    H       -2.25689         0.68861         1.48859
| 80>    H       -0.51484        -3.95950         1.02730
| 81>    H        2.46969        -0.76679        -2.42606
| 82>    H        3.73411         0.80689        -3.70784
| 83>    H       -0.66496        15.24313        -2.22475
| 84>    H       -1.86520        16.33710        -0.47972
| 85>    H       -4.90366        18.35680         3.72317
| 86>    H       -3.84790        13.61900         4.85638
| 87>    H        1.15005         8.03180        -4.55719
| 88>    H        0.70553         7.76475         0.22002
| 89>    H        1.54748        12.44153        -3.12536
| 90>    H       -0.01045        12.24857        -3.91988
| 91>    H        1.41300        14.92474        -3.52368
| 92>    H        1.40025        13.97484        -5.00846
| 93>    H       -0.09907        14.67456        -4.40836
| 94>    H        4.17898         4.51146        -4.64736
| 95>    H        5.18496         3.16567        -4.11972
| 96>    H        3.26650         2.99720        -6.49497
| 97>    H        5.01022         3.25680        -6.61074
| 98>    H        4.38015         1.74512        -5.95881
| 99>    H        1.50538         6.44053        -6.33691
|100>    H        2.67223         5.15845        -6.03222
|101>    H       -0.36029         4.86665        -5.79198
|102>    H        0.62656         4.27124        -7.12873
|103>    H        0.80962         3.57681        -5.51441
|104>    H        0.42375        11.13236         1.70302
|105>    H       -1.17152        10.43011         1.51668
|106>    H        1.32122         8.86321         2.34527
|107>    H        0.06377         9.45902         3.42789
|108>    H       -0.32361         8.21647         2.24358
|109> *
|110>
|111>                          ****END OF INPUT****

CARTESIAN COORDINATES (ANGSTROEM)
---------------------------------
  C     -0.135050    0.314330   -0.409130
  O     -0.340100    1.507730   -0.529810
  C     -0.855050   -0.605320    0.496320
  C     -1.873530   -0.313530    1.381480
  C     -2.389200   -1.357100    2.133020
  C     -1.887960   -2.651110    1.989070
  C     -0.865160   -2.943070    1.098420
  C     -0.342900   -1.904590    0.343340
  C      0.721830   -1.877160   -0.661600
  C      1.431820   -2.969930   -1.084910
  C      2.449560   -2.965620   -2.062390
  N      3.285730   -3.051690   -2.845020
  C      1.233130   -4.279940   -0.597660
  N      1.122490   -5.366570   -0.245450
  C      0.857980   -0.504810   -1.109320
  C      1.781320   -0.039600   -2.012800
  C      2.000360    1.257000   -2.497130
  C      3.039450    1.559240   -3.376260
  C      3.122800    2.894550   -3.750660
  C      2.110480    3.648760   -3.163940
  S      1.095510    2.700390   -2.124060
  C      1.836050    5.056530   -3.230980
  C     -0.247030   12.169920   -1.006980
  C     -0.103810   13.154090   -2.004690
  C     -0.663980   14.356030   -1.618060
  C     -1.258270   14.355890   -0.352160
  S     -1.078510   12.790540    0.387680
  C     -1.897760   15.477940    0.178930
  C     -2.566980   15.639250    1.371800
  C     -3.230840   16.847380    1.812390
  C     -3.266200   18.064410    1.180810
  C     -3.941640   19.196620    1.683550
  N     -4.466290   20.154890    2.035420
  C     -2.640810   18.378170   -0.043860
  N     -2.164920   18.716670   -1.033430
  C     -3.874320   16.550200    3.094630
  C     -4.653290   17.330320    3.934080
  C     -5.132990   16.753280    5.101330
  C     -4.848470   15.429970    5.436330
  C     -4.069820   14.643180    4.602590
  C     -3.594850   15.217950    3.441150
  C     -2.759110   14.604290    2.387210
  O     -2.330760   13.463420    2.389680
  F     -3.376210   -1.121650    3.005390
  F     -5.332920   14.913720    6.572980
  S      1.520980    5.855110   -1.710960
  C      1.206000    7.360510   -2.514710
  C      1.326400    7.216360   -3.877270
  C      1.671040    5.921670   -4.296700
  C      0.842110    8.519480   -1.779310
  C      0.603620    8.616710   -0.426540
  C      0.209490    9.886790    0.003080
  C      0.154680   10.810410   -1.044610
  S      0.608410   10.048580   -2.555990
  C      0.589460   12.934940   -3.313770
  C      0.837530   14.211500   -4.108770
  C      4.237120    3.423870   -4.600160
  C      4.220480    2.819110   -6.004990
  C      1.693720    5.542340   -5.746110
  C      0.625140    4.496210   -6.064890
  C     -0.102390   10.213340    1.427830
  C      0.265190    9.113700    2.417130
  F     -2.403360   -3.639510    2.727970
  F     -5.889290   17.490090    5.923330
  H     -2.256890    0.688610    1.488590
  H     -0.514840   -3.959500    1.027300
  H      2.469690   -0.766790   -2.426060
  H      3.734110    0.806890   -3.707840
  H     -0.664960   15.243130   -2.224750
  H     -1.865200   16.337100   -0.479720
  H     -4.903660   18.356800    3.723170
  H     -3.847900   13.619000    4.856380
  H      1.150050    8.031800   -4.557190
  H      0.705530    7.764750    0.220020
  H      1.547480   12.441530   -3.125360
  H     -0.010450   12.248570   -3.919880
  H      1.413000   14.924740   -3.523680
  H      1.400250   13.974840   -5.008460
  H     -0.099070   14.674560   -4.408360
  H      4.178980    4.511460   -4.647360
  H      5.184960    3.165670   -4.119720
  H      3.266500    2.997200   -6.494970
  H      5.010220    3.256800   -6.610740
  H      4.380150    1.745120   -5.958810
  H      1.505380    6.440530   -6.336910
  H      2.672230    5.158450   -6.032220
  H     -0.360290    4.866650   -5.791980
  H      0.626560    4.271240   -7.128730
  H      0.809620    3.576810   -5.514410
  H      0.423750   11.132360    1.703020
  H     -1.171520   10.430110    1.516680
  H      1.321220    8.863210    2.345270
  H      0.063770    9.459020    3.427890
  H     -0.323610    8.216470    2.243580

 Total Charge           Charge          ....    0
 Multiplicity           Mult            ....    1
 Number of Electrons    NEL             ....  474
 Basis Dimension        Dim             .... 1062

ORBITAL ENERGIES
----------------

  NO   OCC          E(Eh)            E(eV)
   0   2.0000     -88.993789     -2421.6441
   1   2.0000     -88.992144     -2421.5994
   2   2.0000     -88.991166     -2421.5727
   3   2.0000     -88.989991     -2421.5408
   4   2.0000     -24.837624      -675.8661
   5   2.0000     -24.835960      -675.8208
   6   2.0000     -24.833406      -675.7513
   7   2.0000     -24.831494      -675.6993
   8   2.0000     -19.265815      -524.2495
   9   2.0000     -19.259815      -524.0862
  10   2.0000     -14.458958      -393.4483
  11   2.0000     -14.454848      -393.3364
  12   2.0000     -14.452921      -393.2840
  13   2.0000     -14.448805      -393.1720
  14   2.0000     -10.423873      -283.6480
  15   2.0000     -10.423313      -283.6328
  16   2.0000     -10.418987      -283.5151
  17   2.0000     -10.418408      -283.4993
  18   2.0000     -10.412848      -283.3480
  19   2.0000     -10.407120      -283.1921
  20   2.0000     -10.387368      -282.6547
  21   2.0000     -10.383965      -282.5621
  22   2.0000     -10.381034      -282.4823
  23   2.0000     -10.376635      -282.3626
  24   2.0000     -10.366518      -282.0873
  25   2.0000     -10.360108      -281.9129
  26   2.0000     -10.359814      -281.9049
  27   2.0000     -10.357658      -281.8462
  28   2.0000     -10.356351      -281.8106
  29   2.0000     -10.355917      -281.7988
  30   2.0000     -10.355817      -281.7961
  31   2.0000     -10.354566      -281.7621
  32   2.0000     -10.354193      -281.7519
  33   2.0000     -10.353015      -281.7199
  34   2.0000     -10.352431      -281.7040
  35   2.0000     -10.350609      -281.6544
  36   2.0000     -10.350355      -281.6475
  37   2.0000     -10.350293      -281.6458
  38   2.0000     -10.349351      -281.6202
  39   2.0000     -10.346839      -281.5518
  40   2.0000     -10.346319      -281.5376
  41   2.0000     -10.345311      -281.5102
  42   2.0000     -10.342334      -281.4292
  43   2.0000     -10.341445      -281.4050
  44   2.0000     -10.341043      -281.3941
  45   2.0000     -10.337276      -281.2916
  46   2.0000     -10.335802      -281.2515
  47   2.0000     -10.331226      -281.1270
  48   2.0000     -10.329012      -281.0667
  49   2.0000     -10.329003      -281.0665
  50   2.0000     -10.326969      -281.0111
  51   2.0000     -10.326729      -281.0046
  52   2.0000     -10.326186      -280.9898
  53   2.0000     -10.323499      -280.9167
  54   2.0000     -10.317391      -280.7505
  55   2.0000     -10.315884      -280.7095
  56   2.0000     -10.314948      -280.6840
  57   2.0000     -10.314033      -280.6591
  58   2.0000     -10.313928      -280.6562
  59   2.0000     -10.310398      -280.5602
  60   2.0000     -10.301459      -280.3170
  61   2.0000     -10.298789      -280.2443
  62   2.0000     -10.296432      -280.1802
  63   2.0000     -10.296251      -280.1752
  64   2.0000      -8.106854      -220.5987
  65   2.0000      -8.105020      -220.5488
  66   2.0000      -8.104292      -220.5290
  67   2.0000      -8.101524      -220.4537
  68   2.0000      -6.066496      -165.0777
  69   2.0000      -6.064500      -165.0234
  70   2.0000      -6.063862      -165.0061
  71   2.0000      -6.062207      -164.9610
  72   2.0000      -6.061264      -164.9354
  73   2.0000      -6.060359      -164.9107
  74   2.0000      -6.059232      -164.8801
  75   2.0000      -6.059105      -164.8766
  76   2.0000      -6.057307      -164.8277
  77   2.0000      -6.056780      -164.8134
  78   2.0000      -6.056398      -164.8030
  79   2.0000      -6.053936      -164.7360
  80   2.0000      -1.367381       -37.2083
  81   2.0000      -1.362736       -37.0819
  82   2.0000      -1.352294       -36.7978
  83   2.0000      -1.347672       -36.6720
  84   2.0000      -1.183924       -32.2162
  85   2.0000      -1.177485       -32.0410
  86   2.0000      -1.066269       -29.0147
  87   2.0000      -1.060330       -28.8531
  88   2.0000      -1.051364       -28.6091
  89   2.0000      -1.047603       -28.5067
  90   2.0000      -1.044124       -28.4121
  91   2.0000      -1.041957       -28.3531
  92   2.0000      -1.037760       -28.2389
  93   2.0000      -1.032071       -28.0841
  94   2.0000      -1.030840       -28.0506
  95   2.0000      -1.017208       -27.6796
  96   2.0000      -1.001405       -27.2496
  97   2.0000      -0.995969       -27.1017
  98   2.0000      -0.955449       -25.9991
  99   2.0000      -0.950058       -25.8524
 100   2.0000      -0.944233       -25.6939
 101   2.0000      -0.938720       -25.5439
 102   2.0000      -0.937751       -25.5175
 103   2.0000      -0.927301       -25.2332
 104   2.0000      -0.920594       -25.0506
 105   2.0000      -0.917515       -24.9668
 106   2.0000      -0.916140       -24.9294
 107   2.0000      -0.912582       -24.8326
 108   2.0000      -0.903222       -24.5779
 109   2.0000      -0.892794       -24.2942
 110   2.0000      -0.865753       -23.5583
 111   2.0000      -0.863671       -23.5017
 112   2.0000      -0.856779       -23.3141
 113   2.0000      -0.853102       -23.2141
 114   2.0000      -0.849305       -23.1108
 115   2.0000      -0.840673       -22.8759
 116   2.0000      -0.821208       -22.3462
 117   2.0000      -0.817062       -22.2334
 118   2.0000      -0.812115       -22.0988
 119   2.0000      -0.807521       -21.9738
 120   2.0000      -0.777244       -21.1499
 121   2.0000      -0.772966       -21.0335
 122   2.0000      -0.763613       -20.7790
 123   2.0000      -0.763482       -20.7754
 124   2.0000      -0.755967       -20.5709
 125   2.0000      -0.749240       -20.3878
 126   2.0000      -0.744620       -20.2621
 127   2.0000      -0.741931       -20.1890
 128   2.0000      -0.735474       -20.0133
 129   2.0000      -0.728079       -19.8120
 130   2.0000      -0.713756       -19.4223
 131   2.0000      -0.710993       -19.3471
 132   2.0000      -0.701725       -19.0949
 133   2.0000      -0.699131       -19.0243
 134   2.0000      -0.689602       -18.7650
 135   2.0000      -0.687131       -18.6978
 136   2.0000      -0.683894       -18.6097
 137   2.0000      -0.679514       -18.4905
 138   2.0000      -0.677577       -18.4378
 139   2.0000      -0.659413       -17.9435
 140   2.0000      -0.658495       -17.9186
 141   2.0000      -0.655180       -17.8284
 142   2.0000      -0.645362       -17.5612
 143   2.0000      -0.642577       -17.4854
 144   2.0000      -0.637986       -17.3605
 145   2.0000      -0.633581       -17.2406
 146   2.0000      -0.628847       -17.1118
 147   2.0000      -0.627769       -17.0825
 148   2.0000      -0.627246       -17.0682
 149   2.0000      -0.623924       -16.9778
 150   2.0000      -0.623300       -16.9609
 151   2.0000      -0.614838       -16.7306
 152   2.0000      -0.595449       -16.2030
 153   2.0000      -0.591444       -16.0940
 154   2.0000      -0.590010       -16.0550
 155   2.0000      -0.587036       -15.9741
 156   2.0000      -0.586498       -15.9594
 157   2.0000      -0.586366       -15.9558
 158   2.0000      -0.582953       -15.8630
 159   2.0000      -0.582173       -15.8417
 160   2.0000      -0.582072       -15.8390
 161   2.0000      -0.576906       -15.6984
 162   2.0000      -0.576310       -15.6822
 163   2.0000      -0.575848       -15.6696
 164   2.0000      -0.572220       -15.5709
 165   2.0000      -0.569271       -15.4907
 166   2.0000      -0.566622       -15.4186
 167   2.0000      -0.563830       -15.3426
 168   2.0000      -0.559246       -15.2179
 169   2.0000      -0.555047       -15.1036
 170   2.0000      -0.554728       -15.0949
 171   2.0000      -0.548194       -14.9171
 172   2.0000      -0.543248       -14.7825
 173   2.0000      -0.540304       -14.7024
 174   2.0000      -0.537819       -14.6348
 175   2.0000      -0.535798       -14.5798
 176   2.0000      -0.534331       -14.5399
 177   2.0000      -0.533458       -14.5161
 178   2.0000      -0.531770       -14.4702
 179   2.0000      -0.530418       -14.4334
 180   2.0000      -0.528368       -14.3776
 181   2.0000      -0.526426       -14.3248
 182   2.0000      -0.524523       -14.2730
 183   2.0000      -0.520881       -14.1739
 184   2.0000      -0.519713       -14.1421
 185   2.0000      -0.516990       -14.0680
 186   2.0000      -0.511063       -13.9067
 187   2.0000      -0.503964       -13.7136
 188   2.0000      -0.501669       -13.6511
 189   2.0000      -0.497802       -13.5459
 190   2.0000      -0.496579       -13.5126
 191   2.0000      -0.494037       -13.4434
 192   2.0000      -0.490715       -13.3530
 193   2.0000      -0.490559       -13.3488
 194   2.0000      -0.490221       -13.3396
 195   2.0000      -0.489019       -13.3069
 196   2.0000      -0.485507       -13.2113
 197   2.0000      -0.483941       -13.1687
 198   2.0000      -0.483537       -13.1577
 199   2.0000      -0.481881       -13.1127
 200   2.0000      -0.478924       -13.0322
 201   2.0000      -0.477740       -13.0000
 202   2.0000      -0.476913       -12.9774
 203   2.0000      -0.473771       -12.8920
 204   2.0000      -0.471443       -12.8286
 205   2.0000      -0.468362       -12.7448
 206   2.0000      -0.467217       -12.7136
 207   2.0000      -0.464435       -12.6379
 208   2.0000      -0.462882       -12.5957
 209   2.0000      -0.462409       -12.5828
 210   2.0000      -0.461441       -12.5564
 211   2.0000      -0.457270       -12.4430
 212   2.0000      -0.456259       -12.4154
 213   2.0000      -0.454086       -12.3563
 214   2.0000      -0.451014       -12.2727
 215   2.0000      -0.450220       -12.2511
 216   2.0000      -0.448155       -12.1949
 217   2.0000      -0.443831       -12.0772
 218   2.0000      -0.440885       -11.9971
 219   2.0000      -0.435814       -11.8591
 220   2.0000      -0.428604       -11.6629
 221   2.0000      -0.420183       -11.4338
 222   2.0000      -0.408570       -11.1178
 223   2.0000      -0.390063       -10.6142
 224   2.0000      -0.385071       -10.4783
 225   2.0000      -0.378548       -10.3008
 226   2.0000      -0.373413       -10.1611
 227   2.0000      -0.368528       -10.0281
 228   2.0000      -0.366735        -9.9794
 229   2.0000      -0.362524        -9.8648
 230   2.0000      -0.358734        -9.7616
 231   2.0000      -0.355195        -9.6653
 232   2.0000      -0.352073        -9.5804
 233   2.0000      -0.347269        -9.4497
 234   2.0000      -0.335896        -9.1402
 235   2.0000      -0.309273        -8.4157
 236   2.0000      -0.273639        -7.4461
 237   0.0000      -0.076904        -2.0927
 238   0.0000      -0.069549        -1.8925
 239   0.0000      -0.044590        -1.2134
 240   0.0000      -0.040506        -1.1022
 241   0.0000      -0.013538        -0.3684

MULLIKEN ATOMIC CHARGES
-----------------------
   0 C :    0.230119
   1 O :   -0.193982
   2 C :   -0.058717
   3 C :   -0.088711
   4 C :    0.241710
   5 C :    0.243219
   6 C :   -0.082762
   7 C :    0.023645
   8 C :    0.288930
   9 C :   -0.376731
  10 C :   -0.126870
  11 N :    0.102701
  12 C :   -0.135305
  13 N :    0.115124
  14 C :   -0.142745
  15 C :    0.026597
  16 C :   -0.089253
  17 C :   -0.036008
  18 C :   -0.003263
  19 C :   -0.162733
  20 S :    0.213389
  21 C :   -0.170202
  22 C :   -0.080351
  23 C :   -0.064280
  24 C :   -0.044989
  25 C :   -0.049400
  26 S :    0.150005
  27 C :    0.014485
  28 C :   -0.148887
  29 C :    0.292865
  30 C :   -0.381838
  31 C :   -0.133558
  32 N :    0.109405
  33 C :   -0.128254
  34 N :    0.098373
  35 C :    0.024011
  36 C :   -0.086087
  37 C :    0.242845
  38 C :    0.241782
  39 C :   -0.094104
  40 C :   -0.054791
  41 C :    0.230838
  42 O :   -0.203958
  43 F :   -0.182823
  44 F :   -0.184743
  45 S :    0.150260
  46 C :   -0.055700
  47 C :   -0.072517
  48 C :   -0.016130
  49 C :    0.010469
  50 C :   -0.082420
  51 C :   -0.061531
  52 C :   -0.126610
  53 S :    0.096740
  54 C :    0.003840
  55 C :   -0.016396
  56 C :    0.041508
  57 C :   -0.051143
  58 C :    0.060991
  59 C :   -0.048711
  60 C :   -0.003583
  61 C :   -0.011132
  62 F :   -0.178625
  63 F :   -0.180601
  64 H :    0.042892
  65 H :    0.046520
  66 H :    0.029910
  67 H :    0.029267
  68 H :    0.025274
  69 H :    0.027046
  70 H :    0.045265
  71 H :    0.039075
  72 H :    0.010875
  73 H :    0.014060
  74 H :    0.048244
  75 H :    0.055286
  76 H :    0.042680
  77 H :    0.040327
  78 H :    0.042163
  79 H :    0.035398
  80 H :    0.044616
  81 H :    0.035854
  82 H :    0.043999
  83 H :    0.038315
  84 H :    0.021389
  85 H :    0.023555
  86 H :    0.040638
  87 H :    0.040047
  88 H :    0.047536
  89 H :    0.054470
  90 H :    0.071368
  91 H :    0.038610
  92 H :    0.042547
  93 H :    0.039369
Sum of atomic charges:   -0.0000000

LOEWDIN ATOMIC CHARGES
----------------------
   0 C :    0.092685
   1 O :   -0.160901
   2 C :   -0.049878
   3 C :   -0.005830
   4 C :    0.075387
   5 C :    0.078166
   6 C :   -0.016983
   7 C :   -0.019272
   8 C :    0.080898
   9 C :   -0.145274
  10 C :   -0.014935
  11 N :   -0.053359
  12 C :   -0.014886
  13 N :   -0.050210
  14 C :   -0.124548
  15 C :    0.072650
  16 C :   -0.198798
  17 C :   -0.007148
  18 C :   -0.064366
  19 C :   -0.177715
  20 S :    0.500846
  21 C :   -0.202699
  22 C :   -0.156464
  23 C :   -0.073524
  24 C :   -0.009956
  25 C :   -0.205245
  26 S :    0.528919
  27 C :    0.069787
  28 C :   -0.133495
  29 C :    0.081382
  30 C :   -0.150937
  31 C :   -0.015034
  32 N :   -0.055118
  33 C :   -0.014910
  34 N :   -0.057705
  35 C :   -0.018789
  36 C :   -0.017592
  37 C :    0.076962
  38 C :    0.073872
  39 C :   -0.007932
  40 C :   -0.049586
  41 C :    0.092296
  42 O :   -0.171454
  43 F :   -0.048328
  44 F :   -0.050499
  45 S :    0.442805
  46 C :   -0.182085
  47 C :   -0.062041
  48 C :   -0.044958
  49 C :   -0.176707
  50 C :   -0.064957
  51 C :   -0.035842
  52 C :   -0.198523
  53 S :    0.458569
  54 C :   -0.052793
  55 C :   -0.054149
  56 C :   -0.032520
  57 C :   -0.054495
  58 C :   -0.030862
  59 C :   -0.052649
  60 C :   -0.051633
  61 C :   -0.054478
  62 F :   -0.046294
  63 F :   -0.047942
  64 H :    0.056023
  65 H :    0.054332
  66 H :    0.052313
  67 H :    0.038567
  68 H :    0.038828
  69 H :    0.051954
  70 H :    0.053969
  71 H :    0.054472
  72 H :    0.028438
  73 H :    0.028980
  74 H :    0.028853
  75 H :    0.029737
  76 H :    0.029176
  77 H :    0.032562
  78 H :    0.027520
  79 H :    0.030153
  80 H :    0.038821
  81 H :    0.025554
  82 H :    0.030461
  83 H :    0.026864
  84 H :    0.032131
  85 H :    0.030582
  86 H :    0.029960
  87 H :    0.027759
  88 H :    0.025295
  89 H :    0.032785
  90 H :    0.037234
  91 H :    0.027613
  92 H :    0.033634
  93 H :    0.026504

  Mayer bond orders larger than 0.100000
B(  0-C ,  1-O ) :   2.1324 B(  0-C ,  2-C ) :   0.9696 B(  0-C , 14-C ) :   0.9810
B(  2-C ,  3-C ) :   1.3440 B(  2-C ,  7-C ) :   1.3439 B(  3-C ,  4-C ) :   1.3284
B(  3-C , 64-H ) :   1.0150 B(  4-C ,  5-C ) :   1.2932 B(  4-C , 43-F ) :   1.1013
B(  5-C ,  6-C ) :   1.3506 B(  5-C , 62-F ) :   1.1155 B(  6-C ,  7-C ) :   1.3343
B(  6-C , 65-H ) :   0.9880 B(  7-C ,  8-C ) :   1.0184 B(  8-C ,  9-C ) :   1.6440
B(  8-C , 14-C ) :   1.0921 B(  9-C , 10-C ) :   1.1335 B(  9-C , 12-C ) :   1.1297
B( 10-C , 11-N ) :   2.9566 B( 12-C , 13-N ) :   2.9758 B( 14-C , 15-C ) :   1.5385
B( 15-C , 16-C ) :   1.2670 B( 15-C , 66-H ) :   0.9409 B( 16-C , 17-C ) :   1.3805
B( 16-C , 20-S ) :   1.0829 B( 17-C , 18-C ) :   1.3155 B( 17-C , 67-H ) :   1.0022
B( 18-C , 19-C ) :   1.4734 B( 18-C , 56-C ) :   1.0448 B( 19-C , 20-S ) :   1.1620
B( 19-C , 21-C ) :   1.0579 B( 21-C , 45-S ) :   1.1329 B( 21-C , 46-C ) :   0.1070
B( 21-C , 48-C ) :   1.5493 B( 22-C , 23-C ) :   1.3869 B( 22-C , 26-S ) :   1.1520
B( 22-C , 52-C ) :   1.1812 B( 23-C , 24-C ) :   1.4018 B( 23-C , 54-C ) :   1.0322
B( 24-C , 25-C ) :   1.3166 B( 24-C , 68-H ) :   0.9998 B( 25-C , 26-S ) :   1.0727
B( 25-C , 27-C ) :   1.3025 B( 27-C , 28-C ) :   1.4935 B( 27-C , 69-H ) :   0.9400
B( 28-C , 29-C ) :   1.1072 B( 28-C , 41-C ) :   0.9895 B( 29-C , 30-C ) :   1.6301
B( 29-C , 35-C ) :   1.0132 B( 30-C , 31-C ) :   1.1306 B( 30-C , 33-C ) :   1.1369
B( 31-C , 32-N ) :   2.9734 B( 33-C , 34-N ) :   2.9548 B( 35-C , 36-C ) :   1.3372
B( 35-C , 40-C ) :   1.3463 B( 36-C , 37-C ) :   1.3477 B( 36-C , 70-H ) :   0.9882
B( 37-C , 38-C ) :   1.2965 B( 37-C , 63-F ) :   1.1131 B( 38-C , 39-C ) :   1.3262
B( 38-C , 44-F ) :   1.0995 B( 39-C , 40-C ) :   1.3446 B( 39-C , 71-H ) :   1.0155
B( 40-C , 41-C ) :   0.9682 B( 41-C , 42-O ) :   2.1224 B( 45-S , 46-C ) :   1.1336
B( 46-C , 47-C ) :   1.5086 B( 46-C , 49-C ) :   1.1392 B( 47-C , 48-C ) :   1.2830
B( 47-C , 72-H ) :   0.9924 B( 48-C , 58-C ) :   1.0497 B( 49-C , 50-C ) :   1.4693
B( 49-C , 53-S ) :   1.1360 B( 50-C , 51-C ) :   1.3237 B( 50-C , 73-H ) :   0.9907
B( 51-C , 52-C ) :   1.4891 B( 51-C , 60-C ) :   1.0426 B( 52-C , 53-S ) :   1.1088
B( 54-C , 55-C ) :   1.1167 B( 54-C , 74-H ) :   0.9243 B( 54-C , 75-H ) :   0.9156
B( 55-C , 76-H ) :   0.9692 B( 55-C , 77-H ) :   0.9650 B( 55-C , 78-H ) :   0.9618
B( 56-C , 57-C ) :   1.0826 B( 56-C , 79-H ) :   0.9339 B( 56-C , 80-H ) :   0.9334
B( 57-C , 81-H ) :   0.9696 B( 57-C , 82-H ) :   0.9726 B( 57-C , 83-H ) :   0.9726
B( 58-C , 59-C ) :   1.0922 B( 58-C , 84-H ) :   0.9308 B( 58-C , 85-H ) :   0.9232
B( 59-C , 86-H ) :   0.9711 B( 59-C , 87-H ) :   0.9710 B( 59-C , 88-H ) :   0.9705
B( 60-C , 61-C ) :   1.1131 B( 60-C , 89-H ) :   0.9202 B( 60-C , 90-H ) :   0.9121
B( 61-C , 91-H ) :   0.9685 B( 61-C , 92-H ) :   0.9658 B( 61-C , 93-H ) :   0.9607

-----------------------------------------------------------------------------
         ABSORPTION SPECTRUM VIA TRANSITION ELECTRIC DIPOLE MOMENTS
-----------------------------------------------------------------------------
State   Energy  Wavelength   fosc         T2         TX        TY        TZ
        (cm-1)    (nm)                  (au**2)     (au)      (au)      (au)
-----------------------------------------------------------------------------
   0   19884.4    502.9   2.841659572  47.04729  -1.69660   6.54908   1.13068
   1   26106.1    383.1   0.526533462   6.63986   1.53016   0.84341  -1.89397
   2   28663.2    348.9   0.107656547   1.23649   0.61012   0.04646  -0.92849
   3   30798.7    324.7   0.025760377   0.27536  -0.35743  -0.13516   0.35963
   4   31072.3    321.8   0.007301124   0.07736  -0.21618   0.03860   0.17068
   5   31921.5    313.3   0.101981377   1.05175  -0.22438  -0.97043   0.24428
   6   33646.3    297.2   0.000379524   0.00371   0.05100   0.02467  -0.02244
   7   34483.3    290.0   0.200527292   1.91443   0.07286  -1.19613   0.69167
   8   35043.5    285.4   0.010407854   0.09778  -0.03806  -0.02968  -0.30894
   9   35313.8    283.2   0.009846891   0.09180   0.15329  -0.09766  -0.24241
  10   35830.3    279.1   0.000986800   0.00907  -0.07444  -0.05842   0.01061
  11   35987.0    277.9   0.023932574   0.21894   0.35087   0.09925  -0.29322
  12   37627.9    265.8   0.759928381   6.64873  -1.54985  -0.16352   2.05426
  13   38028.3    263.0   0.062605891   0.54198  -0.32576   0.52575  -0.39931
  14   38336.5    260.8   0.076079955   0.65333  -0.01708  -0.60208   0.53901
  15   39572.6    252.7   0.662810956   5.51404   0.75495  -2.21283   0.21796
  16   39877.8    250.8   0.185733869   1.53333   0.66385   0.16352  -1.03242

Dispersion correction           -0.053689085
FINAL SINGLE POINT ENERGY     -4281.630256632560

DIPOLE MOMENT
-------------
                                X             Y             Z
Electronic contribution:    -52.34891      -7.22704      74.06144
Nuclear contribution   :     53.61294       6.72290     -75.45679
                        -----------------------------------------
Total Dipole Moment    :      1.26403      -0.50413      -1.39535
                        -----------------------------------------
Magnitude (a.u.)       :      1.94908
Magnitude (Debye)      :      4.95416

Rotational constants in cm-1:     0.001653     0.000312     0.000267
Rotational constants in MHz :    49.567834     9.350724     7.991673

                             ****ORCA TERMINATED NORMALLY****
TOTAL RUN TIME: 0 days 0 hours 8 minutes 31 seconds 158 msec
