                         Program Version 4.2.0 -  RELEASE  -
|  1> # ORCA input file
|  2> # SCF done       -190.440156832197          0.000856122531
|  3> ! wb97x-d3 def2-SVP def2/J RIJCOSX Grid4 TightSCF
|  4> %maxcore 5000
|  5> %tddft
|  6>     Mode sTDA
|  7>     Ethresh 5.0
|  8>     maxcore 5000
|  9> end
| 10>
| 11> %pal
| 12>   nprocs 6
| 13>   end
| 14> * xyz 0 1
| 15>    C       -0.91055        -0.71534         0.65836
| 16>    O       -0.87889         0.47504         0.92007
| 17>    C       -1.62179        -1.75511         1.42825
| 18>    C       -2.38738        -1.61252         2.56644
| 19>    C       -2.96255        -2.75054         3.11854
| 20>    C       -2.76049        -4.00056         2.52462
| 21>    C       -1.98669        -4.13807         1.37642
| 22>    C       -1.41249        -3.00620         0.82291
| 23>    C       -0.56460        -2.82307        -0.35557
| 24>    C       -0.14756        -3.83062        -1.18816
| 25>    C        0.67140        -3.67747        -2.32603
| 26>    N        1.33329        -3.63953        -3.26482
| 27>    C       -0.48493        -5.18964        -1.01506
| 28>    N       -0.71918        -6.31043        -0.93631
| 29>    C       -0.26389        -1.40926        -0.45506
| 30>    C        0.50149        -0.82829        -1.44066
| 31>    C        0.86301         0.50222        -1.65762
| 32>    S        0.40440         1.85798        -0.62387
| 33>    C        1.25731         2.94586        -1.65161
| 34>    C        1.85496         2.28375        -2.74026
| 35>    C        1.64966         0.91238        -2.75156
| 36>    C        2.16556         0.02557        -3.83674
| 37>    C        1.09597        -0.20586        -4.90792
| 38>    S        2.72262         3.35541        -3.82545
| 39>    C        2.28076         4.68404        -2.81130
| 40>    C        1.51623         4.31784        -1.69744
| 41>    N        1.19736         5.42925        -0.96645
| 42>    C        0.29195         5.28065         0.14962
| 43>    C        1.00684         4.76249         1.39776
| 44>    C        1.76152         6.53033        -1.58184
| 45>    C        2.42607         6.07425        -2.76393
| 46>    C        3.02837         6.95667        -3.68700
| 47>    N        3.64622         6.67115        -4.82255
| 48>    S        4.10167         8.05908        -5.51950
| 49>    N        3.52908         9.07653        -4.39848
| 50>    C        2.96139         8.36351        -3.43823
| 51>    C        2.36515         8.81293        -2.24000
| 52>    C        1.79957         7.92101        -1.27810
| 53>    N        1.40077         8.67691        -0.18919
| 54>    C        0.91273         8.33059         1.12401
| 55>    C       -0.58998         8.57834         1.25585
| 56>    C        1.67338         9.99099        -0.45497
| 57>    C        2.26357        10.10781        -1.71716
| 58>    S        2.67983        11.72688        -2.14178
| 59>    C        2.07879        12.26631        -0.58626
| 60>    C        1.56414        11.22251         0.19987
| 61>   Se        0.91067        11.88093         1.81097
| 62>    C        1.53370        13.60108         1.24088
| 63>    C        2.05686        13.56220        -0.05007
| 64>    C        2.46308        14.72477        -0.89132
| 65>    C        1.40676        15.82488        -0.96688
| 66>    C        1.31527        14.62590         2.17817
| 67>    C        2.01508        15.78375         2.41161
| 68>    C        1.58144        16.85152         3.29001
| 69>    C        0.32706        17.02041         3.81722
| 70>    C       -0.03822        18.09177         4.65903
| 71>    N       -0.39568        18.93258         5.35388
| 72>    C       -0.77609        16.17487         3.57458
| 73>    N       -1.72342        15.54780         3.40505
| 74>    C        2.69883        17.78024         3.44151
| 75>    C        2.83058        18.94594         4.17749
| 76>    C        4.03532        19.63858         4.11752
| 77>    C        5.09855        19.17758         3.33414
| 78>    C        4.97131        18.00433         2.60035
| 79>    C        3.77398        17.32258         2.66106
| 80>    C        3.40209        16.05314         1.99863
| 81>    O        4.13656        15.34409         1.33955
| 82>   Cl        6.57007        20.06180         3.27761
| 83>   Cl       -3.92395        -2.61725         4.53539
| 84>   Cl       -3.47637        -5.39971         3.21690
| 85>   Cl        4.21052        21.08332         5.02907
| 86>    H       -2.53439        -0.64233         3.01399
| 87>    H       -1.85463        -5.11832         0.94921
| 88>    H        0.89554        -1.50351        -2.18757
| 89>    H        3.02709         0.51515        -4.29507
| 90>    H        2.49113        -0.93586        -3.43702
| 91>    H        0.78948         0.74058        -5.34707
| 92>    H        1.49456        -0.84276        -5.69213
| 93>    H        0.22142        -0.69153        -4.48162
| 94>    H       -0.21927         6.22108         0.33266
| 95>    H       -0.46332         4.54389        -0.14354
| 96>    H        1.88257         5.36260         1.63789
| 97>    H        0.32500         4.77530         2.24312
| 98>    H        1.33379         3.73836         1.24080
| 99>    H        1.17778         7.30372         1.35720
|100>    H        1.43460         8.97712         1.84214
|101>    H       -1.14847         8.08720         0.46165
|102>    H       -0.94203         8.21148         2.21573
|103>    H       -0.79955         9.64587         1.19852
|104>    H        3.39480        15.13507        -0.48955
|105>    H        2.67036        14.35436        -1.89793
|106>    H        1.23305        16.27936         0.00478
|107>    H        1.73723        16.60087        -1.65250
|108>    H        0.46389        15.42128        -1.33051
|109>    H        0.49113        14.42463         2.85759
|110>    H        2.03520        19.32820         4.79605
|111>    H        5.78539        17.63587         1.99646
|112> *
|113>
|114>                          ****END OF INPUT****

CARTESIAN COORDINATES (ANGSTROEM)
---------------------------------
  C     -0.910550   -0.715340    0.658360
  O     -0.878890    0.475040    0.920070
  C     -1.621790   -1.755110    1.428250
  C     -2.387380   -1.612520    2.566440
  C     -2.962550   -2.750540    3.118540
  C     -2.760490   -4.000560    2.524620
  C     -1.986690   -4.138070    1.376420
  C     -1.412490   -3.006200    0.822910
  C     -0.564600   -2.823070   -0.355570
  C     -0.147560   -3.830620   -1.188160
  C      0.671400   -3.677470   -2.326030
  N      1.333290   -3.639530   -3.264820
  C     -0.484930   -5.189640   -1.015060
  N     -0.719180   -6.310430   -0.936310
  C     -0.263890   -1.409260   -0.455060
  C      0.501490   -0.828290   -1.440660
  C      0.863010    0.502220   -1.657620
  S      0.404400    1.857980   -0.623870
  C      1.257310    2.945860   -1.651610
  C      1.854960    2.283750   -2.740260
  C      1.649660    0.912380   -2.751560
  C      2.165560    0.025570   -3.836740
  C      1.095970   -0.205860   -4.907920
  S      2.722620    3.355410   -3.825450
  C      2.280760    4.684040   -2.811300
  C      1.516230    4.317840   -1.697440
  N      1.197360    5.429250   -0.966450
  C      0.291950    5.280650    0.149620
  C      1.006840    4.762490    1.397760
  C      1.761520    6.530330   -1.581840
  C      2.426070    6.074250   -2.763930
  C      3.028370    6.956670   -3.687000
  N      3.646220    6.671150   -4.822550
  S      4.101670    8.059080   -5.519500
  N      3.529080    9.076530   -4.398480
  C      2.961390    8.363510   -3.438230
  C      2.365150    8.812930   -2.240000
  C      1.799570    7.921010   -1.278100
  N      1.400770    8.676910   -0.189190
  C      0.912730    8.330590    1.124010
  C     -0.589980    8.578340    1.255850
  C      1.673380    9.990990   -0.454970
  C      2.263570   10.107810   -1.717160
  S      2.679830   11.726880   -2.141780
  C      2.078790   12.266310   -0.586260
  C      1.564140   11.222510    0.199870
  Se     0.910670   11.880930    1.810970
  C      1.533700   13.601080    1.240880
  C      2.056860   13.562200   -0.050070
  C      2.463080   14.724770   -0.891320
  C      1.406760   15.824880   -0.966880
  C      1.315270   14.625900    2.178170
  C      2.015080   15.783750    2.411610
  C      1.581440   16.851520    3.290010
  C      0.327060   17.020410    3.817220
  C     -0.038220   18.091770    4.659030
  N     -0.395680   18.932580    5.353880
  C     -0.776090   16.174870    3.574580
  N     -1.723420   15.547800    3.405050
  C      2.698830   17.780240    3.441510
  C      2.830580   18.945940    4.177490
  C      4.035320   19.638580    4.117520
  C      5.098550   19.177580    3.334140
  C      4.971310   18.004330    2.600350
  C      3.773980   17.322580    2.661060
  C      3.402090   16.053140    1.998630
  O      4.136560   15.344090    1.339550
  Cl     6.570070   20.061800    3.277610
  Cl    -3.923950   -2.617250    4.535390
  Cl    -3.476370   -5.399710    3.216900
  Cl     4.210520   21.083320    5.029070
  H     -2.534390   -0.642330    3.013990
  H     -1.854630   -5.118320    0.949210
  H      0.895540   -1.503510   -2.187570
  H      3.027090    0.515150   -4.295070
  H      2.491130   -0.935860   -3.437020
  H      0.789480    0.740580   -5.347070
  H      1.494560   -0.842760   -5.692130
  H      0.221420   -0.691530   -4.481620
  H     -0.219270    6.221080    0.332660
  H     -0.463320    4.543890   -0.143540
  H      1.882570    5.362600    1.637890
  H      0.325000    4.775300    2.243120
  H      1.333790    3.738360    1.240800
  H      1.177780    7.303720    1.357200
  H      1.434600    8.977120    1.842140
  H     -1.148470    8.087200    0.461650
  H     -0.942030    8.211480    2.215730
  H     -0.799550    9.645870    1.198520
  H      3.394800   15.135070   -0.489550
  H      2.670360   14.354360   -1.897930
  H      1.233050   16.279360    0.004780
  H      1.737230   16.600870   -1.652500
  H      0.463890   15.421280   -1.330510
  H      0.491130   14.424630    2.857590
  H      2.035200   19.328200    4.796050
  H      5.785390   17.635870    1.996460

 Total Charge           Charge          ....    0
 Multiplicity           Mult            ....    1
 Number of Electrons    NEL             ....  576
 Basis Dimension        Dim             .... 1174

ORBITAL ENERGIES
----------------

  NO   OCC          E(Eh)            E(eV)
   0   2.0000    -453.956520    -12352.7849
   1   2.0000    -101.628477     -2765.4514
   2   2.0000    -101.627407     -2765.4223
   3   2.0000    -101.626105     -2765.3869
   4   2.0000    -101.625546     -2765.3717
   5   2.0000     -89.033488     -2422.7244
   6   2.0000     -88.997412     -2421.7427
   7   2.0000     -88.993798     -2421.6444
   8   2.0000     -88.992801     -2421.6172
   9   2.0000     -58.209530     -1583.9618
  10   2.0000     -52.264616     -1422.1925
  11   2.0000     -52.263731     -1422.1684
  12   2.0000     -52.262625     -1422.1383
  13   2.0000     -19.264183      -524.2051
  14   2.0000     -19.260181      -524.0962
  15   2.0000     -14.530822      -395.4038
  16   2.0000     -14.530627      -395.3985
  17   2.0000     -14.472063      -393.8048
  18   2.0000     -14.472002      -393.8032
  19   2.0000     -14.459004      -393.4495
  20   2.0000     -14.455618      -393.3574
  21   2.0000     -14.453531      -393.3006
  22   2.0000     -14.451741      -393.2519
  23   2.0000     -10.411403      -283.3087
  24   2.0000     -10.408867      -283.2397
  25   2.0000     -10.394527      -282.8495
  26   2.0000     -10.393962      -282.8341
  27   2.0000     -10.393907      -282.8326
  28   2.0000     -10.393316      -282.8165
  29   2.0000     -10.384780      -282.5842
  30   2.0000     -10.384189      -282.5682
  31   2.0000     -10.384097      -282.5656
  32   2.0000     -10.383792      -282.5573
  33   2.0000     -10.382339      -282.5178
  34   2.0000     -10.380425      -282.4657
  35   2.0000     -10.377256      -282.3795
  36   2.0000     -10.374238      -282.2974
  37   2.0000     -10.365890      -282.0702
  38   2.0000     -10.365345      -282.0554
  39   2.0000     -10.364047      -282.0201
  40   2.0000     -10.361702      -281.9562
  41   2.0000     -10.360337      -281.9191
  42   2.0000     -10.360026      -281.9106
  43   2.0000     -10.359080      -281.8849
  44   2.0000     -10.356681      -281.8196
  45   2.0000     -10.356099      -281.8038
  46   2.0000     -10.356093      -281.8036
  47   2.0000     -10.355769      -281.7948
  48   2.0000     -10.354687      -281.7654
  49   2.0000     -10.354319      -281.7554
  50   2.0000     -10.353141      -281.7233
  51   2.0000     -10.353005      -281.7196
  52   2.0000     -10.352427      -281.7039
  53   2.0000     -10.351779      -281.6862
  54   2.0000     -10.350363      -281.6477
  55   2.0000     -10.349866      -281.6342
  56   2.0000     -10.347267      -281.5634
  57   2.0000     -10.346962      -281.5551
  58   2.0000     -10.346868      -281.5526
  59   2.0000     -10.346111      -281.5320
  60   2.0000     -10.345760      -281.5224
  61   2.0000     -10.345662      -281.5198
  62   2.0000     -10.345530      -281.5162
  63   2.0000     -10.338628      -281.3284
  64   2.0000     -10.338187      -281.3164
  65   2.0000     -10.336110      -281.2599
  66   2.0000     -10.333072      -281.1772
  67   2.0000     -10.331219      -281.1268
  68   2.0000     -10.330991      -281.1206
  69   2.0000     -10.325055      -280.9590
  70   2.0000     -10.320477      -280.8345
  71   2.0000     -10.320421      -280.8329
  72   2.0000     -10.309568      -280.5376
  73   2.0000     -10.299002      -280.2501
  74   2.0000     -10.296638      -280.1858
  75   2.0000      -9.605243      -261.3719
  76   2.0000      -9.604170      -261.3427
  77   2.0000      -9.602895      -261.3081
  78   2.0000      -9.602374      -261.2939
  79   2.0000      -8.144638      -221.6269
  80   2.0000      -8.108347      -220.6393
  81   2.0000      -8.106339      -220.5847
  82   2.0000      -8.105523      -220.5625
  83   2.0000      -7.978798      -217.1141
  84   2.0000      -7.365254      -200.4187
  85   2.0000      -7.364190      -200.3898
  86   2.0000      -7.362925      -200.3554
  87   2.0000      -7.362407      -200.3413
  88   2.0000      -7.355284      -200.1475
  89   2.0000      -7.354622      -200.1294
  90   2.0000      -7.354210      -200.1182
  91   2.0000      -7.353540      -200.1000
  92   2.0000      -7.352921      -200.0832
  93   2.0000      -7.352386      -200.0686
  94   2.0000      -7.352256      -200.0650
  95   2.0000      -7.351733      -200.0508
  96   2.0000      -6.106446      -166.1648
  97   2.0000      -6.098537      -165.9496
  98   2.0000      -6.096332      -165.8896
  99   2.0000      -6.068423      -165.1302
 100   2.0000      -6.066355      -165.0739
 101   2.0000      -6.065657      -165.0549
 102   2.0000      -6.063721      -165.0022
 103   2.0000      -6.062350      -164.9649
 104   2.0000      -6.061617      -164.9450
 105   2.0000      -6.060102      -164.9038
 106   2.0000      -6.057582      -164.8352
 107   2.0000      -6.056516      -164.8062
 108   2.0000      -5.923256      -161.1800
 109   2.0000      -5.919040      -161.0653
 110   2.0000      -5.912809      -160.8957
 111   2.0000      -2.274042       -61.8798
 112   2.0000      -2.273492       -61.8648
 113   2.0000      -2.267776       -61.7093
 114   2.0000      -2.264363       -61.6164
 115   2.0000      -2.263626       -61.5964
 116   2.0000      -1.181888       -32.1608
 117   2.0000      -1.176879       -32.0245
 118   2.0000      -1.162161       -31.6240
 119   2.0000      -1.153383       -31.3851
 120   2.0000      -1.148901       -31.2632
 121   2.0000      -1.072563       -29.1859
 122   2.0000      -1.071943       -29.1691
 123   2.0000      -1.058745       -28.8099
 124   2.0000      -1.057299       -28.7706
 125   2.0000      -1.055354       -28.7176
 126   2.0000      -1.046165       -28.4676
 127   2.0000      -1.037054       -28.2197
 128   2.0000      -1.035663       -28.1818
 129   2.0000      -1.032543       -28.0969
 130   2.0000      -1.032434       -28.0940
 131   2.0000      -1.015015       -27.6200
 132   2.0000      -1.009340       -27.4655
 133   2.0000      -1.000714       -27.2308
 134   2.0000      -0.999907       -27.2089
 135   2.0000      -0.996537       -27.1171
 136   2.0000      -0.989166       -26.9166
 137   2.0000      -0.974563       -26.5192
 138   2.0000      -0.972403       -26.4604
 139   2.0000      -0.956178       -26.0189
 140   2.0000      -0.943919       -25.6853
 141   2.0000      -0.939675       -25.5699
 142   2.0000      -0.938644       -25.5418
 143   2.0000      -0.934226       -25.4216
 144   2.0000      -0.927726       -25.2447
 145   2.0000      -0.913595       -24.8602
 146   2.0000      -0.910188       -24.7675
 147   2.0000      -0.901924       -24.5426
 148   2.0000      -0.901223       -24.5235
 149   2.0000      -0.899688       -24.4818
 150   2.0000      -0.886564       -24.1246
 151   2.0000      -0.874016       -23.7832
 152   2.0000      -0.870459       -23.6864
 153   2.0000      -0.859704       -23.3937
 154   2.0000      -0.844602       -22.9828
 155   2.0000      -0.841994       -22.9118
 156   2.0000      -0.834560       -22.7095
 157   2.0000      -0.821641       -22.3580
 158   2.0000      -0.809908       -22.0387
 159   2.0000      -0.807705       -21.9788
 160   2.0000      -0.800031       -21.7699
 161   2.0000      -0.796380       -21.6706
 162   2.0000      -0.792482       -21.5645
 163   2.0000      -0.775681       -21.1073
 164   2.0000      -0.764994       -20.8165
 165   2.0000      -0.764168       -20.7941
 166   2.0000      -0.754934       -20.5428
 167   2.0000      -0.750466       -20.4212
 168   2.0000      -0.740502       -20.1501
 169   2.0000      -0.738706       -20.1012
 170   2.0000      -0.736298       -20.0357
 171   2.0000      -0.734278       -19.9807
 172   2.0000      -0.725079       -19.7304
 173   2.0000      -0.713662       -19.4197
 174   2.0000      -0.705043       -19.1852
 175   2.0000      -0.700461       -19.0605
 176   2.0000      -0.694361       -18.8945
 177   2.0000      -0.686383       -18.6774
 178   2.0000      -0.679294       -18.4845
 179   2.0000      -0.669422       -18.2159
 180   2.0000      -0.664167       -18.0729
 181   2.0000      -0.659744       -17.9525
 182   2.0000      -0.657960       -17.9040
 183   2.0000      -0.654725       -17.8160
 184   2.0000      -0.645385       -17.5618
 185   2.0000      -0.638692       -17.3797
 186   2.0000      -0.632375       -17.2078
 187   2.0000      -0.626786       -17.0557
 188   2.0000      -0.623388       -16.9633
 189   2.0000      -0.619165       -16.8483
 190   2.0000      -0.615213       -16.7408
 191   2.0000      -0.610948       -16.6247
 192   2.0000      -0.608579       -16.5603
 193   2.0000      -0.606008       -16.4903
 194   2.0000      -0.597563       -16.2605
 195   2.0000      -0.595774       -16.2118
 196   2.0000      -0.590817       -16.0769
 197   2.0000      -0.589053       -16.0289
 198   2.0000      -0.588229       -16.0065
 199   2.0000      -0.587522       -15.9873
 200   2.0000      -0.587057       -15.9746
 201   2.0000      -0.583669       -15.8824
 202   2.0000      -0.580592       -15.7987
 203   2.0000      -0.576028       -15.6745
 204   2.0000      -0.575107       -15.6495
 205   2.0000      -0.572251       -15.5718
 206   2.0000      -0.571270       -15.5450
 207   2.0000      -0.569098       -15.4859
 208   2.0000      -0.566276       -15.4092
 209   2.0000      -0.562904       -15.3174
 210   2.0000      -0.561185       -15.2706
 211   2.0000      -0.557074       -15.1587
 212   2.0000      -0.550967       -14.9926
 213   2.0000      -0.548944       -14.9375
 214   2.0000      -0.547998       -14.9118
 215   2.0000      -0.546429       -14.8691
 216   2.0000      -0.543821       -14.7981
 217   2.0000      -0.540282       -14.7018
 218   2.0000      -0.539607       -14.6835
 219   2.0000      -0.535493       -14.5715
 220   2.0000      -0.530609       -14.4386
 221   2.0000      -0.529404       -14.4058
 222   2.0000      -0.524813       -14.2809
 223   2.0000      -0.524064       -14.2605
 224   2.0000      -0.521449       -14.1894
 225   2.0000      -0.517409       -14.0794
 226   2.0000      -0.514796       -14.0083
 227   2.0000      -0.514517       -14.0007
 228   2.0000      -0.511816       -13.9272
 229   2.0000      -0.506524       -13.7832
 230   2.0000      -0.503968       -13.7137
 231   2.0000      -0.503191       -13.6925
 232   2.0000      -0.499738       -13.5986
 233   2.0000      -0.499008       -13.5787
 234   2.0000      -0.496481       -13.5099
 235   2.0000      -0.493123       -13.4186
 236   2.0000      -0.490348       -13.3430
 237   2.0000      -0.488585       -13.2951
 238   2.0000      -0.488042       -13.2803
 239   2.0000      -0.485330       -13.2065
 240   2.0000      -0.484164       -13.1748
 241   2.0000      -0.481674       -13.1070
 242   2.0000      -0.481333       -13.0977
 243   2.0000      -0.480736       -13.0815
 244   2.0000      -0.477278       -12.9874
 245   2.0000      -0.476539       -12.9673
 246   2.0000      -0.472138       -12.8475
 247   2.0000      -0.469168       -12.7667
 248   2.0000      -0.468413       -12.7462
 249   2.0000      -0.466309       -12.6889
 250   2.0000      -0.466097       -12.6831
 251   2.0000      -0.464901       -12.6506
 252   2.0000      -0.464542       -12.6408
 253   2.0000      -0.461644       -12.5620
 254   2.0000      -0.459730       -12.5099
 255   2.0000      -0.457851       -12.4587
 256   2.0000      -0.454930       -12.3793
 257   2.0000      -0.451872       -12.2961
 258   2.0000      -0.449061       -12.2196
 259   2.0000      -0.448290       -12.1986
 260   2.0000      -0.444332       -12.0909
 261   2.0000      -0.443653       -12.0724
 262   2.0000      -0.443613       -12.0713
 263   2.0000      -0.440632       -11.9902
 264   2.0000      -0.440134       -11.9767
 265   2.0000      -0.435723       -11.8566
 266   2.0000      -0.429991       -11.7006
 267   2.0000      -0.428725       -11.6662
 268   2.0000      -0.425863       -11.5883
 269   2.0000      -0.417848       -11.3702
 270   2.0000      -0.417196       -11.3525
 271   2.0000      -0.402225       -10.9451
 272   2.0000      -0.400315       -10.8931
 273   2.0000      -0.393995       -10.7211
 274   2.0000      -0.385194       -10.4817
 275   2.0000      -0.379463       -10.3257
 276   2.0000      -0.375968       -10.2306
 277   2.0000      -0.374403       -10.1880
 278   2.0000      -0.373025       -10.1505
 279   2.0000      -0.369863       -10.0645
 280   2.0000      -0.349857        -9.5201
 281   2.0000      -0.348018        -9.4701
 282   2.0000      -0.345648        -9.4056
 283   2.0000      -0.339617        -9.2415
 284   2.0000      -0.322015        -8.7625
 285   2.0000      -0.310841        -8.4584
 286   2.0000      -0.307274        -8.3614
 287   2.0000      -0.272064        -7.4032
 288   0.0000      -0.081850        -2.2272
 289   0.0000      -0.070736        -1.9248
 290   0.0000      -0.048980        -1.3328
 291   0.0000      -0.045121        -1.2278
 292   0.0000      -0.020470        -0.5570

MULLIKEN ATOMIC CHARGES
-----------------------
   0 C :    0.233557
   1 O :   -0.205976
   2 C :   -0.063248
   3 C :   -0.011291
   4 C :    0.042829
   5 C :    0.029398
   6 C :    0.003692
   7 C :    0.012012
   8 C :    0.292868
   9 C :   -0.382122
  10 C :   -0.117954
  11 N :    0.095977
  12 C :   -0.131188
  13 N :    0.108994
  14 C :   -0.152085
  15 C :    0.005048
  16 C :   -0.105365
  17 S :    0.188668
  18 C :   -0.009428
  19 C :   -0.091798
  20 C :   -0.085067
  21 C :    0.004672
  22 C :   -0.013013
  23 S :    0.206164
  24 C :   -0.048272
  25 C :    0.029066
  26 N :   -0.243788
  27 C :    0.054994
  28 C :   -0.043136
  29 C :    0.120456
  30 C :   -0.129275
  31 C :    0.020355
  32 N :   -0.299352
  33 S :    0.482921
  34 N :   -0.300775
  35 C :    0.026195
  36 C :   -0.127365
  37 C :    0.112786
  38 N :   -0.249888
  39 C :    0.054975
  40 C :   -0.045608
  41 C :    0.062439
  42 C :   -0.044808
  43 S :    0.202545
  44 C :   -0.152668
  45 C :   -0.082017
  46 Se:    0.212223
  47 C :   -0.184663
  48 C :    0.001496
  49 C :    0.009995
  50 C :   -0.043615
  51 C :    0.016290
  52 C :   -0.145386
  53 C :    0.277770
  54 C :   -0.366929
  55 C :   -0.127818
  56 N :    0.107196
  57 C :   -0.145730
  58 N :    0.118139
  59 C :    0.016318
  60 C :    0.000823
  61 C :    0.031073
  62 C :    0.042660
  63 C :   -0.011307
  64 C :   -0.067272
  65 C :    0.212578
  66 O :   -0.179670
  67 Cl:   -0.044881
  68 Cl:   -0.046424
  69 Cl:   -0.036533
  70 Cl:   -0.037351
  71 H :    0.026164
  72 H :    0.028639
  73 H :   -0.008670
  74 H :    0.041330
  75 H :    0.060832
  76 H :    0.035730
  77 H :    0.057341
  78 H :    0.033283
  79 H :    0.024411
  80 H :    0.063875
  81 H :    0.056993
  82 H :    0.056395
  83 H :    0.053512
  84 H :    0.025821
  85 H :    0.059135
  86 H :    0.060747
  87 H :    0.056890
  88 H :    0.050096
  89 H :    0.086041
  90 H :    0.027857
  91 H :    0.039921
  92 H :    0.043812
  93 H :    0.044793
  94 H :    0.053350
  95 H :    0.028102
  96 H :    0.029497
Sum of atomic charges:   -0.0000000

LOEWDIN ATOMIC CHARGES
----------------------
   0 C :    0.092433
   1 O :   -0.172850
   2 C :   -0.047526
   3 C :   -0.000128
   4 C :   -0.135051
   5 C :   -0.130724
   6 C :   -0.009648
   7 C :   -0.016391
   8 C :    0.081422
   9 C :   -0.151585
  10 C :   -0.012083
  11 N :   -0.058873
  12 C :   -0.015840
  13 N :   -0.052959
  14 C :   -0.134500
  15 C :    0.067684
  16 C :   -0.196851
  17 S :    0.474739
  18 C :   -0.190504
  19 C :   -0.198158
  20 C :   -0.005838
  21 C :   -0.034072
  22 C :   -0.043931
  23 S :    0.418132
  24 C :   -0.163690
  25 C :   -0.046319
  26 N :    0.041612
  27 C :    0.036517
  28 C :   -0.065759
  29 C :    0.016533
  30 C :   -0.082637
  31 C :   -0.053783
  32 N :   -0.287042
  33 S :    0.600608
  34 N :   -0.287255
  35 C :   -0.053798
  36 C :   -0.081096
  37 C :    0.015529
  38 N :    0.038273
  39 C :    0.035676
  40 C :   -0.066115
  41 C :   -0.040792
  42 C :   -0.169306
  43 S :    0.435407
  44 C :   -0.189862
  45 C :   -0.172954
  46 Se:    0.379968
  47 C :   -0.165748
  48 C :    0.007302
  49 C :   -0.039603
  50 C :   -0.050512
  51 C :    0.056898
  52 C :   -0.120970
  53 C :    0.077251
  54 C :   -0.144644
  55 C :   -0.015337
  56 N :   -0.050330
  57 C :   -0.019891
  58 N :   -0.052194
  59 C :   -0.018559
  60 C :   -0.010046
  61 C :   -0.131503
  62 C :   -0.133873
  63 C :    0.000051
  64 C :   -0.046791
  65 C :    0.089898
  66 O :   -0.141036
  67 Cl:    0.153882
  68 Cl:    0.152919
  69 Cl:    0.157648
  70 Cl:    0.157273
  71 H :    0.048465
  72 H :    0.047375
  73 H :    0.047620
  74 H :    0.035001
  75 H :    0.039922
  76 H :    0.028038
  77 H :    0.036264
  78 H :    0.025790
  79 H :    0.027477
  80 H :    0.035174
  81 H :    0.028252
  82 H :    0.038437
  83 H :    0.028037
  84 H :    0.028910
  85 H :    0.033235
  86 H :    0.030616
  87 H :    0.038189
  88 H :    0.027041
  89 H :    0.044790
  90 H :    0.024645
  91 H :    0.023222
  92 H :    0.032289
  93 H :    0.030563
  94 H :    0.045223
  95 H :    0.047109
  96 H :    0.049615

  Mayer bond orders larger than 0.100000
B(  0-C ,  1-O ) :   2.1176 B(  0-C ,  2-C ) :   0.9608 B(  0-C , 14-C ) :   0.9847
B(  2-C ,  3-C ) :   1.3751 B(  2-C ,  7-C ) :   1.3348 B(  3-C ,  4-C ) :   1.3487
B(  3-C , 71-H ) :   1.0126 B(  4-C ,  5-C ) :   1.4119 B(  4-C , 68-Cl) :   1.0512
B(  5-C ,  6-C ) :   1.3674 B(  5-C , 69-Cl) :   1.0822 B(  6-C ,  7-C ) :   1.3717
B(  6-C , 72-H ) :   0.9838 B(  7-C ,  8-C ) :   1.0001 B(  8-C ,  9-C ) :   1.6268
B(  8-C , 14-C ) :   1.1101 B(  9-C , 10-C ) :   1.1420 B(  9-C , 12-C ) :   1.1309
B( 10-C , 11-N ) :   2.9509 B( 12-C , 13-N ) :   2.9674 B( 14-C , 15-C ) :   1.5071
B( 15-C , 16-C ) :   1.3320 B( 15-C , 73-H ) :   0.9264 B( 16-C , 17-S ) :   1.0361
B( 16-C , 20-C ) :   1.3776 B( 17-S , 18-C ) :   1.0363 B( 18-C , 19-C ) :   1.4027
B( 18-C , 25-C ) :   1.3108 B( 19-C , 20-C ) :   1.4577 B( 19-C , 23-S ) :   1.0193
B( 20-C , 21-C ) :   1.0559 B( 21-C , 22-C ) :   1.0878 B( 21-C , 74-H ) :   0.9320
B( 21-C , 75-H ) :   0.9131 B( 22-C , 76-H ) :   0.9701 B( 22-C , 77-H ) :   0.9712
B( 22-C , 78-H ) :   0.9727 B( 23-S , 24-C ) :   1.0201 B( 24-C , 25-C ) :   1.4093
B( 24-C , 30-C ) :   1.4037 B( 25-C , 26-N ) :   1.1396 B( 26-N , 27-C ) :   0.9278
B( 26-N , 29-C ) :   1.1783 B( 27-C , 28-C ) :   1.0856 B( 27-C , 79-H ) :   0.9516
B( 27-C , 80-H ) :   0.9459 B( 28-C , 81-H ) :   0.9590 B( 28-C , 82-H ) :   0.9704
B( 28-C , 83-H ) :   0.9549 B( 29-C , 30-C ) :   1.3833 B( 29-C , 37-C ) :   1.1294
B( 30-C , 31-C ) :   1.1322 B( 31-C , 32-N ) :   1.6174 B( 31-C , 35-C ) :   1.1378
B( 32-N , 33-S ) :   1.2304 B( 32-N , 34-N ) :   0.1310 B( 33-S , 34-N ) :   1.2302
B( 34-N , 35-C ) :   1.6161 B( 35-C , 36-C ) :   1.1350 B( 36-C , 37-C ) :   1.3891
B( 36-C , 42-C ) :   1.3864 B( 37-C , 38-N ) :   1.1666 B( 38-N , 39-C ) :   0.9304
B( 38-N , 41-C ) :   1.1381 B( 39-C , 40-C ) :   1.0854 B( 39-C , 84-H ) :   0.9503
B( 39-C , 85-H ) :   0.9458 B( 40-C , 86-H ) :   0.9583 B( 40-C , 87-H ) :   0.9707
B( 40-C , 88-H ) :   0.9552 B( 41-C , 42-C ) :   1.4112 B( 41-C , 45-C ) :   1.2880
B( 42-C , 43-S ) :   1.0337 B( 43-S , 44-C ) :   1.0420 B( 44-C , 45-C ) :   1.4383
B( 44-C , 48-C ) :   1.3696 B( 45-C , 46-Se) :   1.0551 B( 46-Se, 47-C ) :   1.0165
B( 47-C , 48-C ) :   1.4845 B( 47-C , 51-C ) :   1.2387 B( 48-C , 49-C ) :   1.0497
B( 49-C , 50-C ) :   1.0912 B( 49-C , 89-H ) :   0.8893 B( 49-C , 90-H ) :   0.9280
B( 50-C , 91-H ) :   0.9711 B( 50-C , 92-H ) :   0.9697 B( 50-C , 93-H ) :   0.9720
B( 51-C , 52-C ) :   1.5686 B( 51-C , 94-H ) :   0.9256 B( 52-C , 53-C ) :   1.0874
B( 52-C , 65-C ) :   0.9820 B( 53-C , 54-C ) :   1.6506 B( 53-C , 59-C ) :   1.0062
B( 54-C , 55-C ) :   1.1252 B( 54-C , 57-C ) :   1.1352 B( 55-C , 56-N ) :   2.9699
B( 57-C , 58-N ) :   2.9843 B( 59-C , 60-C ) :   1.3666 B( 59-C , 64-C ) :   1.3312
B( 60-C , 61-C ) :   1.3702 B( 60-C , 95-H ) :   0.9853 B( 61-C , 62-C ) :   1.4097
B( 61-C , 70-Cl) :   1.0801 B( 62-C , 63-C ) :   1.3506 B( 62-C , 67-Cl) :   1.0534
B( 63-C , 64-C ) :   1.3756 B( 63-C , 96-H ) :   1.0121 B( 64-C , 65-C ) :   0.9346
B( 65-C , 66-O ) :   2.1560

-----------------------------------------------------------------------------
         ABSORPTION SPECTRUM VIA TRANSITION ELECTRIC DIPOLE MOMENTS
-----------------------------------------------------------------------------
State   Energy  Wavelength   fosc         T2         TX        TY        TZ
        (cm-1)    (nm)                  (au**2)     (au)      (au)      (au)
-----------------------------------------------------------------------------
   0   19529.0    512.1   3.255025772  54.87185   0.79824   7.24479   1.32199
   1   25366.5    394.2   0.821033985  10.65557   1.50160   0.60451  -2.83467
   2   28558.1    350.2   0.045188886   0.52093   0.12659   0.28066  -0.65279
   3   28862.8    346.5   0.266915281   3.04446  -0.68264  -1.02774   1.23378
   4   29409.6    340.0   0.011351385   0.12707  -0.23938   0.15921   0.21076
   5   29505.5    338.9   0.167656988   1.87066  -0.32701   0.94520   0.93291
   6   32078.7    311.7   0.013184406   0.13531  -0.06978  -0.34557  -0.10497
   7   32607.6    306.7   0.031144114   0.31444   0.39710   0.37409  -0.12962
   8   34516.6    289.7   0.352376239   3.36089  -1.38199  -0.14178   1.19620
   9   34795.9    287.4   0.042163344   0.39892   0.17846  -0.17200   0.58094
  10   36183.5    276.4   0.494213620   4.49656  -0.92816  -1.30525  -1.38974
  11   36990.1    270.3   0.282369265   2.51309   1.00821   0.13592  -1.21578
  12   37338.7    267.8   0.306333523   2.70092   1.54591   0.49439  -0.25821
  13   37760.6    264.8   0.028233979   0.24616  -0.39634  -0.17669   0.24052
  14   38087.6    262.6   0.474239256   4.09911  -1.45430   0.70421   1.21993
  15   38898.6    257.1   0.209091608   1.76961   0.99783  -0.02536  -0.87938
  16   39799.4    251.3   0.443326651   3.66710  -1.00067  -0.60365   1.51702
  17   40237.4    248.5   0.097520696   0.79789   0.30200   0.80750  -0.23373

Dispersion correction           -0.066377297
FINAL SINGLE POINT ENERGY     -8416.754391418033

DIPOLE MOMENT
-------------
                                X             Y             Z
Electronic contribution:      2.02691      57.18858      47.68676
Nuclear contribution   :     -1.58812     -56.72682     -47.48594
                        -----------------------------------------
Total Dipole Moment    :      0.43879       0.46176       0.20082
                        -----------------------------------------
Magnitude (a.u.)       :      0.66790
Magnitude (Debye)      :      1.69765

Rotational constants in cm-1:     0.001475     0.000212     0.000190
Rotational constants in MHz :    44.221661     6.351690     5.707384

                             ****ORCA TERMINATED NORMALLY****
TOTAL RUN TIME: 0 days 0 hours 11 minutes 57 seconds 699 msec
