                         Program Version 4.2.0 -  RELEASE  -
|  1> # ORCA input file
|  2> # SCF done       -191.213916959257          0.001068415210
|  3> ! wb97x-d3 def2-SVP def2/J RIJCOSX Grid4 TightSCF
|  4> %maxcore 5000
|  5> %tddft
|  6>     Mode sTDA
|  7>     Ethresh 5.0
|  8>     maxcore 5000
|  9> end
| 10>
| 11> %pal
| 12>   nprocs 6
| 13>   end
| 14> * xyz 0 1
| 15>    C       -1.36875         1.53126         3.95274
| 16>    C       -1.46705         2.94134         4.02667
| 17>    S       -1.05302         3.75004         2.51242
| 18>    C       -0.74319         2.22700         1.81512
| 19>    C       -0.93519         1.13538         2.68689
| 20>    N       -0.64204        -0.03364         2.00126
| 21>    C       -1.11304        -1.33708         2.41694
| 22>    C       -0.26996         0.30682         0.70953
| 23>    C       -0.36393         1.71777         0.56791
| 24>    C       -0.20120         2.36434        -0.67656
| 25>    N       -0.29563         3.65372        -0.96097
| 26>    S       -0.11408         3.84276        -2.55559
| 27>    N        0.09507         2.28746        -2.94925
| 28>    C        0.03119         1.56416        -1.84171
| 29>    C        0.22486         0.17475        -1.68172
| 30>    C        0.15911        -0.45960        -0.40656
| 31>    N        0.53641        -1.78985        -0.56186
| 32>    C        1.15539        -2.67792         0.40047
| 33>    C        2.48314        -2.10772         0.89332
| 34>    C        0.81838        -1.98609        -1.88911
| 35>    C        0.61029        -0.80371        -2.60894
| 36>    S        0.95245        -0.93896        -4.29773
| 37>    C        1.40282        -2.60441        -4.04145
| 38>    C        1.28060        -3.02099        -2.70704
| 39>    C       -0.18977        -2.03186         3.42126
| 40>    C        3.29043        -6.29745        -7.26225
| 41>    C        3.52009        -6.09880        -8.60348
| 42>    C        4.08881        -7.07605        -9.50913
| 43>    C        4.50412        -8.34991        -9.21537
| 44>    C        5.04887        -9.24263       -10.16316
| 45>    N        5.49405       -10.01656       -10.88403
| 46>    C        4.45578        -8.96192        -7.94556
| 47>    N        4.45470        -9.53295        -6.94821
| 48>    C        4.15903        -6.45500       -10.83357
| 49>    C        4.61737        -6.93607       -12.04995
| 50>    C        4.55869        -6.09115       -13.14878
| 51>    F        4.99671        -6.53758       -14.33130
| 52>    C        4.05708        -4.79313       -13.05108
| 53>    C        3.59648        -4.30431       -11.83877
| 54>    C        3.65507        -5.14645       -10.74668
| 55>    C        3.23746        -4.87456        -9.35501
| 56>    O        2.75892        -3.83541        -8.94044
| 57>    S        1.74949        -4.68154        -2.46836
| 58>    C        2.12530        -4.81071        -4.16862
| 59>    C        1.88375        -3.61988        -4.87372
| 60>    C        2.62932        -5.84605        -4.93845
| 61>    C        2.77702        -5.44533        -6.28072
| 62>    S        2.27250        -3.77021        -6.54045
| 63>    F        4.02128        -4.01315       -14.13785
| 64>    C       -1.73427         6.07228         4.57324
| 65>    O       -1.44525         6.03435         3.39334
| 66>    C       -1.96162         7.29785         5.37101
| 67>    C       -1.88412         8.61302         4.95985
| 68>    C       -2.13645         9.59614         5.90346
| 69>    C       -2.45607         9.25368         7.21721
| 70>    F       -2.69282        10.22299         8.10920
| 71>    C       -2.53606         7.93110         7.62817
| 72>    C       -2.28578         6.94179         6.69007
| 73>    C       -2.28772         5.48096         6.79556
| 74>    C       -2.56483         4.78286         7.94448
| 75>    C       -2.57774         3.37976         8.08221
| 76>    N       -2.60929         2.24802         8.28159
| 77>    C       -2.88119         5.38502         9.18098
| 78>    N       -3.14213         5.79936        10.21924
| 79>    C       -1.94215         4.95039         5.49296
| 80>    C       -1.83430         3.60996         5.19833
| 81>    F       -2.07180        10.88625         5.55179
| 82>    C        2.91554        -7.20540        -4.38838
| 83>    C        1.74641        -8.15973        -4.64849
| 84>    C       -1.64129         0.65278         5.13580
| 85>    C       -0.42615         0.58910         6.06737
| 86>    H       -2.10837        -1.21546         2.85725
| 87>    H       -1.24170        -1.94143         1.51666
| 88>    H        0.49078        -2.88103         1.23385
| 89>    H        1.33251        -3.62391        -0.11646
| 90>    H        3.16405        -1.96606         0.05729
| 91>    H        2.94242        -2.79244         1.60100
| 92>    H        2.33281        -1.14444         1.37651
| 93>    H       -0.28270        -1.59367         4.40808
| 94>    H       -0.45365        -3.08407         3.49530
| 95>    H        0.85086        -1.94668         3.12354
| 96>    H        3.55302        -7.27533        -6.88250
| 97>    H        5.01428        -7.92927       -12.18132
| 98>    H        3.20799        -3.30179       -11.75670
| 99>    H       -1.63584         8.87091         3.94266
|100>    H       -2.78757         7.72272         8.65497
|101>    H       -2.05899         2.95035         6.02390
|102>    H        3.82495        -7.62104        -4.82480
|103>    H        3.06753        -7.11389        -3.31049
|104>    H        1.56956        -8.27062        -5.71537
|105>    H        1.97214        -9.13803        -4.23397
|106>    H        0.83786        -7.78338        -4.18371
|107>    H       -1.90014        -0.34997         4.80355
|108>    H       -2.49805         1.02681         5.69819
|109>    H       -0.20967         1.56978         6.48183
|110>    H       -0.62679        -0.09027         6.89124
|111>    H        0.45737         0.24811         5.53185
|112> *
|113>
|114>                          ****END OF INPUT****

CARTESIAN COORDINATES (ANGSTROEM)
---------------------------------
  C     -1.368750    1.531260    3.952740
  C     -1.467050    2.941340    4.026670
  S     -1.053020    3.750040    2.512420
  C     -0.743190    2.227000    1.815120
  C     -0.935190    1.135380    2.686890
  N     -0.642040   -0.033640    2.001260
  C     -1.113040   -1.337080    2.416940
  C     -0.269960    0.306820    0.709530
  C     -0.363930    1.717770    0.567910
  C     -0.201200    2.364340   -0.676560
  N     -0.295630    3.653720   -0.960970
  S     -0.114080    3.842760   -2.555590
  N      0.095070    2.287460   -2.949250
  C      0.031190    1.564160   -1.841710
  C      0.224860    0.174750   -1.681720
  C      0.159110   -0.459600   -0.406560
  N      0.536410   -1.789850   -0.561860
  C      1.155390   -2.677920    0.400470
  C      2.483140   -2.107720    0.893320
  C      0.818380   -1.986090   -1.889110
  C      0.610290   -0.803710   -2.608940
  S      0.952450   -0.938960   -4.297730
  C      1.402820   -2.604410   -4.041450
  C      1.280600   -3.020990   -2.707040
  C     -0.189770   -2.031860    3.421260
  C      3.290430   -6.297450   -7.262250
  C      3.520090   -6.098800   -8.603480
  C      4.088810   -7.076050   -9.509130
  C      4.504120   -8.349910   -9.215370
  C      5.048870   -9.242630  -10.163160
  N      5.494050  -10.016560  -10.884030
  C      4.455780   -8.961920   -7.945560
  N      4.454700   -9.532950   -6.948210
  C      4.159030   -6.455000  -10.833570
  C      4.617370   -6.936070  -12.049950
  C      4.558690   -6.091150  -13.148780
  F      4.996710   -6.537580  -14.331300
  C      4.057080   -4.793130  -13.051080
  C      3.596480   -4.304310  -11.838770
  C      3.655070   -5.146450  -10.746680
  C      3.237460   -4.874560   -9.355010
  O      2.758920   -3.835410   -8.940440
  S      1.749490   -4.681540   -2.468360
  C      2.125300   -4.810710   -4.168620
  C      1.883750   -3.619880   -4.873720
  C      2.629320   -5.846050   -4.938450
  C      2.777020   -5.445330   -6.280720
  S      2.272500   -3.770210   -6.540450
  F      4.021280   -4.013150  -14.137850
  C     -1.734270    6.072280    4.573240
  O     -1.445250    6.034350    3.393340
  C     -1.961620    7.297850    5.371010
  C     -1.884120    8.613020    4.959850
  C     -2.136450    9.596140    5.903460
  C     -2.456070    9.253680    7.217210
  F     -2.692820   10.222990    8.109200
  C     -2.536060    7.931100    7.628170
  C     -2.285780    6.941790    6.690070
  C     -2.287720    5.480960    6.795560
  C     -2.564830    4.782860    7.944480
  C     -2.577740    3.379760    8.082210
  N     -2.609290    2.248020    8.281590
  C     -2.881190    5.385020    9.180980
  N     -3.142130    5.799360   10.219240
  C     -1.942150    4.950390    5.492960
  C     -1.834300    3.609960    5.198330
  F     -2.071800   10.886250    5.551790
  C      2.915540   -7.205400   -4.388380
  C      1.746410   -8.159730   -4.648490
  C     -1.641290    0.652780    5.135800
  C     -0.426150    0.589100    6.067370
  H     -2.108370   -1.215460    2.857250
  H     -1.241700   -1.941430    1.516660
  H      0.490780   -2.881030    1.233850
  H      1.332510   -3.623910   -0.116460
  H      3.164050   -1.966060    0.057290
  H      2.942420   -2.792440    1.601000
  H      2.332810   -1.144440    1.376510
  H     -0.282700   -1.593670    4.408080
  H     -0.453650   -3.084070    3.495300
  H      0.850860   -1.946680    3.123540
  H      3.553020   -7.275330   -6.882500
  H      5.014280   -7.929270  -12.181320
  H      3.207990   -3.301790  -11.756700
  H     -1.635840    8.870910    3.942660
  H     -2.787570    7.722720    8.654970
  H     -2.058990    2.950350    6.023900
  H      3.824950   -7.621040   -4.824800
  H      3.067530   -7.113890   -3.310490
  H      1.569560   -8.270620   -5.715370
  H      1.972140   -9.138030   -4.233970
  H      0.837860   -7.783380   -4.183710
  H     -1.900140   -0.349970    4.803550
  H     -2.498050    1.026810    5.698190
  H     -0.209670    1.569780    6.481830
  H     -0.626790   -0.090270    6.891240
  H      0.457370    0.248110    5.531850

 Total Charge           Charge          ....    0
 Multiplicity           Mult            ....    1
 Number of Electrons    NEL             ....  526
 Basis Dimension        Dim             .... 1144

ORBITAL ENERGIES
----------------

  NO   OCC          E(Eh)            E(eV)
   0   2.0000     -89.034480     -2422.7514
   1   2.0000     -89.005630     -2421.9663
   2   2.0000     -88.998480     -2421.7718
   3   2.0000     -88.994793     -2421.6714
   4   2.0000     -88.983915     -2421.3754
   5   2.0000     -24.835485      -675.8079
   6   2.0000     -24.833795      -675.7619
   7   2.0000     -24.831807      -675.7078
   8   2.0000     -24.830228      -675.6649
   9   2.0000     -19.263043      -524.1740
  10   2.0000     -19.256084      -523.9847
  11   2.0000     -14.529051      -395.3556
  12   2.0000     -14.524534      -395.2327
  13   2.0000     -14.473350      -393.8399
  14   2.0000     -14.470954      -393.7747
  15   2.0000     -14.460118      -393.4798
  16   2.0000     -14.456912      -393.3926
  17   2.0000     -14.452577      -393.2746
  18   2.0000     -14.448446      -393.1622
  19   2.0000     -10.421653      -283.5876
  20   2.0000     -10.421028      -283.5706
  21   2.0000     -10.417619      -283.4778
  22   2.0000     -10.416883      -283.4578
  23   2.0000     -10.410352      -283.2801
  24   2.0000     -10.404155      -283.1114
  25   2.0000     -10.385564      -282.6056
  26   2.0000     -10.384142      -282.5669
  27   2.0000     -10.381336      -282.4905
  28   2.0000     -10.380978      -282.4808
  29   2.0000     -10.380155      -282.4584
  30   2.0000     -10.375823      -282.3405
  31   2.0000     -10.375015      -282.3185
  32   2.0000     -10.374917      -282.3158
  33   2.0000     -10.368143      -282.1315
  34   2.0000     -10.365431      -282.0577
  35   2.0000     -10.364431      -282.0305
  36   2.0000     -10.361579      -281.9529
  37   2.0000     -10.359422      -281.8942
  38   2.0000     -10.358941      -281.8811
  39   2.0000     -10.358920      -281.8806
  40   2.0000     -10.358210      -281.8612
  41   2.0000     -10.356830      -281.8237
  42   2.0000     -10.356208      -281.8068
  43   2.0000     -10.355699      -281.7929
  44   2.0000     -10.354309      -281.7551
  45   2.0000     -10.354086      -281.7490
  46   2.0000     -10.353531      -281.7339
  47   2.0000     -10.351641      -281.6825
  48   2.0000     -10.351184      -281.6700
  49   2.0000     -10.350382      -281.6482
  50   2.0000     -10.348868      -281.6070
  51   2.0000     -10.348591      -281.5995
  52   2.0000     -10.347847      -281.5792
  53   2.0000     -10.347450      -281.5684
  54   2.0000     -10.344620      -281.4914
  55   2.0000     -10.344267      -281.4818
  56   2.0000     -10.340390      -281.3763
  57   2.0000     -10.340220      -281.3717
  58   2.0000     -10.339542      -281.3532
  59   2.0000     -10.338787      -281.3327
  60   2.0000     -10.336328      -281.2658
  61   2.0000     -10.333988      -281.2021
  62   2.0000     -10.333819      -281.1975
  63   2.0000     -10.328281      -281.0468
  64   2.0000     -10.326791      -281.0063
  65   2.0000     -10.324653      -280.9481
  66   2.0000     -10.324332      -280.9394
  67   2.0000     -10.323443      -280.9152
  68   2.0000     -10.320736      -280.8415
  69   2.0000     -10.303850      -280.3820
  70   2.0000     -10.302842      -280.3546
  71   2.0000      -8.145591      -221.6528
  72   2.0000      -8.118251      -220.9089
  73   2.0000      -8.111158      -220.7158
  74   2.0000      -8.106436      -220.5873
  75   2.0000      -8.095507      -220.2899
  76   2.0000      -6.107360      -166.1897
  77   2.0000      -6.099450      -165.9745
  78   2.0000      -6.097381      -165.9182
  79   2.0000      -6.078354      -165.4004
  80   2.0000      -6.074361      -165.2918
  81   2.0000      -6.071237      -165.2067
  82   2.0000      -6.069391      -165.1565
  83   2.0000      -6.067097      -165.0941
  84   2.0000      -6.066455      -165.0766
  85   2.0000      -6.062342      -164.9647
  86   2.0000      -6.061780      -164.9494
  87   2.0000      -6.058079      -164.8487
  88   2.0000      -6.055407      -164.7760
  89   2.0000      -6.050876      -164.6527
  90   2.0000      -6.047230      -164.5535
  91   2.0000      -1.365186       -37.1486
  92   2.0000      -1.361321       -37.0434
  93   2.0000      -1.350073       -36.7374
  94   2.0000      -1.346242       -36.6331
  95   2.0000      -1.181545       -32.1515
  96   2.0000      -1.175092       -31.9759
  97   2.0000      -1.160470       -31.5780
  98   2.0000      -1.153235       -31.3811
  99   2.0000      -1.142831       -31.0980
 100   2.0000      -1.070697       -29.1351
 101   2.0000      -1.064766       -28.9738
 102   2.0000      -1.060960       -28.8702
 103   2.0000      -1.046699       -28.4821
 104   2.0000      -1.042868       -28.3779
 105   2.0000      -1.036789       -28.2125
 106   2.0000      -1.033067       -28.1112
 107   2.0000      -1.029505       -28.0142
 108   2.0000      -1.027970       -27.9725
 109   2.0000      -1.013214       -27.5710
 110   2.0000      -1.004721       -27.3398
 111   2.0000      -0.999487       -27.1974
 112   2.0000      -0.994728       -27.0679
 113   2.0000      -0.980350       -26.6767
 114   2.0000      -0.958590       -26.0846
 115   2.0000      -0.948042       -25.7975
 116   2.0000      -0.944805       -25.7095
 117   2.0000      -0.941815       -25.6281
 118   2.0000      -0.934374       -25.4256
 119   2.0000      -0.927663       -25.2430
 120   2.0000      -0.926251       -25.2046
 121   2.0000      -0.923084       -25.1184
 122   2.0000      -0.915492       -24.9118
 123   2.0000      -0.911302       -24.7978
 124   2.0000      -0.901286       -24.5252
 125   2.0000      -0.890466       -24.2308
 126   2.0000      -0.878839       -23.9144
 127   2.0000      -0.871734       -23.7211
 128   2.0000      -0.862259       -23.4633
 129   2.0000      -0.855640       -23.2832
 130   2.0000      -0.849841       -23.1254
 131   2.0000      -0.837001       -22.7759
 132   2.0000      -0.834384       -22.7048
 133   2.0000      -0.815952       -22.2032
 134   2.0000      -0.811415       -22.0797
 135   2.0000      -0.805889       -21.9293
 136   2.0000      -0.798089       -21.7171
 137   2.0000      -0.793233       -21.5850
 138   2.0000      -0.785437       -21.3728
 139   2.0000      -0.769238       -20.9320
 140   2.0000      -0.761574       -20.7235
 141   2.0000      -0.759515       -20.6675
 142   2.0000      -0.753134       -20.4938
 143   2.0000      -0.749320       -20.3900
 144   2.0000      -0.745165       -20.2770
 145   2.0000      -0.741717       -20.1831
 146   2.0000      -0.739506       -20.1230
 147   2.0000      -0.729655       -19.8549
 148   2.0000      -0.716146       -19.4873
 149   2.0000      -0.708913       -19.2905
 150   2.0000      -0.698332       -19.0026
 151   2.0000      -0.697076       -18.9684
 152   2.0000      -0.691630       -18.8202
 153   2.0000      -0.690238       -18.7823
 154   2.0000      -0.685243       -18.6464
 155   2.0000      -0.682125       -18.5616
 156   2.0000      -0.676122       -18.3982
 157   2.0000      -0.673969       -18.3396
 158   2.0000      -0.664955       -18.0943
 159   2.0000      -0.660473       -17.9724
 160   2.0000      -0.652459       -17.7543
 161   2.0000      -0.650175       -17.6922
 162   2.0000      -0.644680       -17.5426
 163   2.0000      -0.638675       -17.3792
 164   2.0000      -0.633030       -17.2256
 165   2.0000      -0.631357       -17.1801
 166   2.0000      -0.626710       -17.0536
 167   2.0000      -0.625642       -17.0246
 168   2.0000      -0.621881       -16.9222
 169   2.0000      -0.618779       -16.8378
 170   2.0000      -0.615614       -16.7517
 171   2.0000      -0.610044       -16.6001
 172   2.0000      -0.608124       -16.5479
 173   2.0000      -0.607369       -16.5274
 174   2.0000      -0.602439       -16.3932
 175   2.0000      -0.598590       -16.2885
 176   2.0000      -0.592009       -16.1094
 177   2.0000      -0.590041       -16.0558
 178   2.0000      -0.587660       -15.9910
 179   2.0000      -0.584642       -15.9089
 180   2.0000      -0.584372       -15.9016
 181   2.0000      -0.581729       -15.8296
 182   2.0000      -0.580838       -15.8054
 183   2.0000      -0.578519       -15.7423
 184   2.0000      -0.574937       -15.6448
 185   2.0000      -0.574307       -15.6277
 186   2.0000      -0.573248       -15.5989
 187   2.0000      -0.570081       -15.5127
 188   2.0000      -0.569523       -15.4975
 189   2.0000      -0.568170       -15.4607
 190   2.0000      -0.561960       -15.2917
 191   2.0000      -0.556613       -15.1462
 192   2.0000      -0.556108       -15.1325
 193   2.0000      -0.549363       -14.9489
 194   2.0000      -0.547345       -14.8940
 195   2.0000      -0.544302       -14.8112
 196   2.0000      -0.539717       -14.6865
 197   2.0000      -0.537575       -14.6281
 198   2.0000      -0.535552       -14.5731
 199   2.0000      -0.533804       -14.5256
 200   2.0000      -0.532218       -14.4824
 201   2.0000      -0.531482       -14.4624
 202   2.0000      -0.531407       -14.4603
 203   2.0000      -0.527371       -14.3505
 204   2.0000      -0.524814       -14.2809
 205   2.0000      -0.523263       -14.2387
 206   2.0000      -0.519028       -14.1235
 207   2.0000      -0.517863       -14.0918
 208   2.0000      -0.515977       -14.0405
 209   2.0000      -0.514587       -14.0026
 210   2.0000      -0.509680       -13.8691
 211   2.0000      -0.508922       -13.8485
 212   2.0000      -0.506021       -13.7695
 213   2.0000      -0.501465       -13.6456
 214   2.0000      -0.496845       -13.5198
 215   2.0000      -0.494564       -13.4578
 216   2.0000      -0.492682       -13.4066
 217   2.0000      -0.492565       -13.4034
 218   2.0000      -0.491679       -13.3793
 219   2.0000      -0.491579       -13.3765
 220   2.0000      -0.489010       -13.3066
 221   2.0000      -0.487700       -13.2710
 222   2.0000      -0.485996       -13.2246
 223   2.0000      -0.481918       -13.1137
 224   2.0000      -0.481819       -13.1110
 225   2.0000      -0.478187       -13.0121
 226   2.0000      -0.475899       -12.9499
 227   2.0000      -0.473300       -12.8792
 228   2.0000      -0.469991       -12.7891
 229   2.0000      -0.469706       -12.7813
 230   2.0000      -0.467868       -12.7313
 231   2.0000      -0.466999       -12.7077
 232   2.0000      -0.465880       -12.6772
 233   2.0000      -0.465323       -12.6621
 234   2.0000      -0.460929       -12.5425
 235   2.0000      -0.460607       -12.5337
 236   2.0000      -0.456401       -12.4193
 237   2.0000      -0.450021       -12.2457
 238   2.0000      -0.449784       -12.2392
 239   2.0000      -0.446145       -12.1402
 240   2.0000      -0.444390       -12.0925
 241   2.0000      -0.441233       -12.0066
 242   2.0000      -0.439034       -11.9467
 243   2.0000      -0.438616       -11.9353
 244   2.0000      -0.431769       -11.7490
 245   2.0000      -0.426453       -11.6044
 246   2.0000      -0.412562       -11.2264
 247   2.0000      -0.401450       -10.9240
 248   2.0000      -0.399854       -10.8806
 249   2.0000      -0.386716       -10.5231
 250   2.0000      -0.382491       -10.4081
 251   2.0000      -0.378406       -10.2969
 252   2.0000      -0.373936       -10.1753
 253   2.0000      -0.371678       -10.1139
 254   2.0000      -0.367486        -9.9998
 255   2.0000      -0.354395        -9.6436
 256   2.0000      -0.348947        -9.4953
 257   2.0000      -0.347497        -9.4559
 258   2.0000      -0.339502        -9.2383
 259   2.0000      -0.325212        -8.8495
 260   2.0000      -0.312510        -8.5038
 261   2.0000      -0.305516        -8.3135
 262   2.0000      -0.272410        -7.4127
 263   0.0000      -0.081412        -2.2153
 264   0.0000      -0.067112        -1.8262
 265   0.0000      -0.044894        -1.2216
 266   0.0000      -0.038571        -1.0496
 267   0.0000      -0.017607        -0.4791

MULLIKEN ATOMIC CHARGES
-----------------------
   0 C :   -0.087907
   1 C :   -0.128509
   2 S :    0.232457
   3 C :   -0.032916
   4 C :    0.120454
   5 N :   -0.265831
   6 C :    0.038374
   7 C :    0.112603
   8 C :   -0.099992
   9 C :    0.016799
  10 N :   -0.291328
  11 S :    0.487543
  12 N :   -0.295916
  13 C :    0.012031
  14 C :   -0.097532
  15 C :    0.084851
  16 N :   -0.251409
  17 C :    0.073186
  18 C :   -0.049351
  19 C :    0.032520
  20 C :   -0.068053
  21 S :    0.239418
  22 C :   -0.132892
  23 C :   -0.048009
  24 C :   -0.031509
  25 C :   -0.000244
  26 C :   -0.149419
  27 C :    0.291177
  28 C :   -0.386816
  29 C :   -0.130539
  30 N :    0.110409
  31 C :   -0.114467
  32 N :    0.091409
  33 C :    0.022019
  34 C :   -0.081528
  35 C :    0.242821
  36 F :   -0.179411
  37 C :    0.241372
  38 C :   -0.088977
  39 C :   -0.060557
  40 C :    0.230194
  41 O :   -0.193617
  42 S :    0.149349
  43 C :   -0.051898
  44 C :   -0.038376
  45 C :   -0.092584
  46 C :   -0.109281
  47 S :    0.217149
  48 F :   -0.182861
  49 C :    0.225241
  50 O :   -0.185558
  51 C :   -0.058096
  52 C :   -0.092310
  53 C :    0.241617
  54 C :    0.242631
  55 F :   -0.180719
  56 C :   -0.082863
  57 C :    0.019637
  58 C :    0.291287
  59 C :   -0.391017
  60 C :   -0.116626
  61 N :    0.088471
  62 C :   -0.134768
  63 N :    0.109730
  64 C :   -0.153321
  65 C :    0.008954
  66 F :   -0.184785
  67 C :    0.007442
  68 C :   -0.010977
  69 C :    0.007449
  70 C :   -0.004390
  71 H :    0.065383
  72 H :    0.054115
  73 H :    0.024388
  74 H :    0.049107
  75 H :    0.056351
  76 H :    0.055989
  77 H :    0.056189
  78 H :    0.039451
  79 H :    0.053410
  80 H :    0.036775
  81 H :   -0.010036
  82 H :    0.045936
  83 H :    0.042354
  84 H :    0.043283
  85 H :    0.043924
  86 H :   -0.021387
  87 H :    0.062469
  88 H :    0.034625
  89 H :    0.036076
  90 H :    0.055479
  91 H :    0.033249
  92 H :    0.014048
  93 H :    0.055959
  94 H :    0.034552
  95 H :    0.055743
  96 H :    0.031137
Sum of atomic charges:   -0.0000000

LOEWDIN ATOMIC CHARGES
----------------------
   0 C :   -0.015138
   1 C :   -0.194247
   2 S :    0.502932
   3 C :   -0.166167
   4 C :   -0.029647
   5 N :    0.018389
   6 C :    0.038803
   7 C :    0.029813
   8 C :   -0.090931
   9 C :   -0.050861
  10 N :   -0.282797
  11 S :    0.606544
  12 N :   -0.285702
  13 C :   -0.057271
  14 C :   -0.065800
  15 C :    0.002048
  16 N :    0.028276
  17 C :    0.041384
  18 C :   -0.062879
  19 C :   -0.036527
  20 C :   -0.178106
  21 S :    0.443016
  22 C :   -0.212110
  23 C :   -0.191737
  24 C :   -0.069592
  25 C :    0.066503
  26 C :   -0.130276
  27 C :    0.083137
  28 C :   -0.152697
  29 C :   -0.015295
  30 N :   -0.053379
  31 C :   -0.011301
  32 N :   -0.060987
  33 C :   -0.019778
  34 C :   -0.017264
  35 C :    0.077474
  36 F :   -0.046966
  37 C :    0.075059
  38 C :   -0.005645
  39 C :   -0.049417
  40 C :    0.092020
  41 O :   -0.162633
  42 S :    0.391019
  43 C :   -0.203849
  44 C :   -0.190823
  45 C :   -0.011460
  46 C :   -0.193733
  47 S :    0.487322
  48 F :   -0.048489
  49 C :    0.089015
  50 O :   -0.157957
  51 C :   -0.048226
  52 C :   -0.006679
  53 C :    0.074702
  54 C :    0.076224
  55 F :   -0.048704
  56 C :   -0.017876
  57 C :   -0.020737
  58 C :    0.084324
  59 C :   -0.158013
  60 C :   -0.010560
  61 N :   -0.065649
  62 C :   -0.015912
  63 N :   -0.057044
  64 C :   -0.133096
  65 C :    0.063343
  66 F :   -0.049998
  67 C :   -0.034563
  68 C :   -0.044235
  69 C :   -0.036742
  70 C :   -0.047449
  71 H :    0.034400
  72 H :    0.030963
  73 H :    0.024758
  74 H :    0.025248
  75 H :    0.037592
  76 H :    0.036477
  77 H :    0.030786
  78 H :    0.031596
  79 H :    0.037067
  80 H :    0.030114
  81 H :    0.046930
  82 H :    0.054195
  83 H :    0.056123
  84 H :    0.056044
  85 H :    0.053573
  86 H :    0.044128
  87 H :    0.040646
  88 H :    0.032027
  89 H :    0.026968
  90 H :    0.035520
  91 H :    0.027247
  92 H :    0.026422
  93 H :    0.040190
  94 H :    0.028171
  95 H :    0.035747
  96 H :    0.022663

  Mayer bond orders larger than 0.100000
B(  0-C ,  1-C ) :   1.3649 B(  0-C ,  4-C ) :   1.3716 B(  0-C , 69-C ) :   1.0485
B(  1-C ,  2-S ) :   1.0476 B(  1-C , 65-C ) :   1.3332 B(  2-S ,  3-C ) :   1.0569
B(  3-C ,  4-C ) :   1.3308 B(  3-C ,  8-C ) :   1.3456 B(  4-C ,  5-N ) :   1.0963
B(  5-N ,  6-C ) :   0.9275 B(  5-N ,  7-C ) :   1.1689 B(  6-C , 24-C ) :   1.0794
B(  6-C , 71-H ) :   0.9518 B(  6-C , 72-H ) :   0.9567 B(  7-C ,  8-C ) :   1.3891
B(  7-C , 15-C ) :   1.1421 B(  8-C ,  9-C ) :   1.1422 B(  9-C , 10-N ) :   1.6134
B(  9-C , 13-C ) :   1.1433 B( 10-N , 11-S ) :   1.2341 B( 10-N , 12-N ) :   0.1319
B( 11-S , 12-N ) :   1.2352 B( 12-N , 13-C ) :   1.6116 B( 13-C , 14-C ) :   1.1355
B( 14-C , 15-C ) :   1.4080 B( 14-C , 20-C ) :   1.3797 B( 15-C , 16-N ) :   1.1388
B( 16-N , 17-C ) :   0.9392 B( 16-N , 19-C ) :   1.1459 B( 17-C , 18-C ) :   1.0978
B( 17-C , 73-H ) :   0.9463 B( 17-C , 74-H ) :   0.9452 B( 18-C , 75-H ) :   0.9632
B( 18-C , 76-H ) :   0.9682 B( 18-C , 77-H ) :   0.9607 B( 19-C , 20-C ) :   1.4191
B( 19-C , 23-C ) :   1.3362 B( 20-C , 21-S ) :   1.0274 B( 21-S , 22-C ) :   1.0392
B( 22-C , 23-C ) :   1.5179 B( 22-C , 44-C ) :   1.3821 B( 23-C , 42-S ) :   1.0209
B( 24-C , 78-H ) :   0.9590 B( 24-C , 79-H ) :   0.9632 B( 24-C , 80-H ) :   0.9640
B( 25-C , 26-C ) :   1.5271 B( 25-C , 46-C ) :   1.3216 B( 25-C , 81-H ) :   0.9263
B( 26-C , 27-C ) :   1.1080 B( 26-C , 40-C ) :   0.9764 B( 27-C , 28-C ) :   1.6278
B( 27-C , 33-C ) :   1.0143 B( 28-C , 29-C ) :   1.1297 B( 28-C , 31-C ) :   1.1407
B( 29-C , 30-N ) :   2.9737 B( 31-C , 32-N ) :   2.9497 B( 33-C , 34-C ) :   1.3365
B( 33-C , 39-C ) :   1.3446 B( 34-C , 35-C ) :   1.3496 B( 34-C , 82-H ) :   0.9867
B( 35-C , 36-F ) :   1.1143 B( 35-C , 37-C ) :   1.2945 B( 37-C , 38-C ) :   1.3264
B( 37-C , 48-F ) :   1.1008 B( 38-C , 39-C ) :   1.3482 B( 38-C , 83-H ) :   1.0142
B( 39-C , 40-C ) :   0.9677 B( 40-C , 41-O ) :   2.1347 B( 42-S , 43-C ) :   1.0123
B( 43-C , 44-C ) :   1.4076 B( 43-C , 45-C ) :   1.4355 B( 44-C , 47-S ) :   1.0790
B( 45-C , 46-C ) :   1.3968 B( 45-C , 67-C ) :   1.0515 B( 46-C , 47-S ) :   1.0500
B( 49-C , 50-O ) :   2.1524 B( 49-C , 51-C ) :   0.9640 B( 49-C , 64-C ) :   0.9708
B( 51-C , 52-C ) :   1.3480 B( 51-C , 57-C ) :   1.3462 B( 52-C , 53-C ) :   1.3257
B( 52-C , 84-H ) :   1.0149 B( 53-C , 54-C ) :   1.2954 B( 53-C , 66-F ) :   1.0993
B( 54-C , 55-F ) :   1.1139 B( 54-C , 56-C ) :   1.3498 B( 56-C , 57-C ) :   1.3357
B( 56-C , 85-H ) :   0.9877 B( 57-C , 58-C ) :   1.0135 B( 58-C , 59-C ) :   1.6130
B( 58-C , 64-C ) :   1.1161 B( 59-C , 60-C ) :   1.1469 B( 59-C , 62-C ) :   1.1322
B( 60-C , 61-N ) :   2.9459 B( 62-C , 63-N ) :   2.9736 B( 64-C , 65-C ) :   1.5226
B( 65-C , 86-H ) :   0.9221 B( 67-C , 68-C ) :   1.0897 B( 67-C , 87-H ) :   0.9126
B( 67-C , 88-H ) :   0.9331 B( 68-C , 89-H ) :   0.9729 B( 68-C , 90-H ) :   0.9712
B( 68-C , 91-H ) :   0.9697 B( 69-C , 70-C ) :   1.1017 B( 69-C , 92-H ) :   0.9348
B( 69-C , 93-H ) :   0.9021 B( 70-C , 94-H ) :   0.9653 B( 70-C , 95-H ) :   0.9702
B( 70-C , 96-H ) :   0.9619

-----------------------------------------------------------------------------
         ABSORPTION SPECTRUM VIA TRANSITION ELECTRIC DIPOLE MOMENTS
-----------------------------------------------------------------------------
State   Energy  Wavelength   fosc         T2         TX        TY        TZ
        (cm-1)    (nm)                  (au**2)     (au)      (au)      (au)
-----------------------------------------------------------------------------
   0   19581.6    510.7   3.913504639  65.79515  -2.37197   4.72333   6.15297
   1   25686.6    389.3   0.026031414   0.33363   0.42320  -0.37098   0.13001
   2   28496.5    350.9   0.043101764   0.49794  -0.01756  -0.28479   0.64539
   3   29259.7    341.8   0.182583716   2.05432  -0.00705  -1.25049   0.70039
   4   29674.2    337.0   0.012337013   0.13687   0.21498   0.03616  -0.29890
   5   30385.3    329.1   0.132858497   1.43947   0.06709  -0.73856   0.94313
   6   32427.8    308.4   0.157158008   1.59549  -0.45198   0.28465   1.14463
   7   32978.3    303.2   0.012219431   0.12198  -0.12397   0.32230  -0.05233
   8   34810.6    287.3   0.017174108   0.16242  -0.18847   0.25120  -0.25258
   9   35254.7    283.7   0.033688423   0.31459   0.09994   0.53776   0.12414
  10   36882.3    271.1   0.706436065   6.30566  -0.09378  -1.79272   1.75586
  11   37349.2    267.7   0.056680959   0.49961  -0.03284  -0.66571  -0.23528
  12   37958.4    263.4   0.263462249   2.28500   0.07388  -1.36447   0.64634
  13   38540.5    259.5   0.172051668   1.46966   0.08119  -1.01889   0.65187
  14   39299.4    254.5   0.091832330   0.76928   0.50089  -0.70618   0.14039
  15   39678.7    252.0   0.511952569   4.24764   0.11376   1.60361  -1.28963

Dispersion correction           -0.063594721
FINAL SINGLE POINT ENERGY     -4972.220265971008

DIPOLE MOMENT
-------------
                                X             Y             Z
Electronic contribution:      1.19772      54.79430     -58.22998
Nuclear contribution   :     -1.24422     -55.91265      58.60619
                        -----------------------------------------
Total Dipole Moment    :     -0.04650      -1.11835       0.37621
                        -----------------------------------------
Magnitude (a.u.)       :      1.18085
Magnitude (Debye)      :      3.00147

Rotational constants in cm-1:     0.002661     0.000226     0.000210
Rotational constants in MHz :    79.761475     6.785709     6.292273

                             ****ORCA TERMINATED NORMALLY****
TOTAL RUN TIME: 0 days 0 hours 11 minutes 13 seconds 729 msec
