                         Program Version 4.2.0 -  RELEASE  -
|  1> # ORCA input file
|  2> # SCF done       -177.336580652783          0.000788901696
|  3> ! wb97x-d3 def2-SVP def2/J RIJCOSX Grid4 TightSCF
|  4> %maxcore 5000
|  5> %tddft
|  6>     Mode sTDA
|  7>     Ethresh 5.0
|  8>     maxcore 5000
|  9> end
| 10>
| 11> %pal
| 12>   nprocs 6
| 13>   end
| 14> * xyz 0 1
| 15>    C        1.44545         2.03626         0.77911
| 16>    C        1.09668         3.09098         1.58670
| 17>    C        1.59387         4.44402         1.48682
| 18>    C        0.81665         5.27128         2.41045
| 19>    C       -0.12123         4.45616         3.06471
| 20>    C       -0.00654         3.06454         2.56602
| 21>    O       -0.75157         2.14656         2.83416
| 22>    C        2.65552         4.87456         0.73380
| 23>    C        3.10614         6.21033         0.69247
| 24>    N        3.51657         7.27968         0.61609
| 25>    C        3.45494         4.04606        -0.08177
| 26>    N        4.16304         3.43497        -0.74785
| 27>    C        0.88200         6.62412         2.70482
| 28>    C        0.00437         7.12700         3.65403
| 29>    C       -0.92397         6.31004         4.29850
| 30>    C       -0.99952         4.95805         4.00373
| 31>    F        0.05147         8.43064         3.95417
| 32>    F       -1.75095         6.83664         5.21146
| 33>    C        1.15872         0.68266         1.00981
| 34>    S        1.06221        -0.41746        -0.34593
| 35>    C        0.71545        -1.74246         0.70603
| 36>    C        0.73667        -1.37047         2.03389
| 37>    C        0.99735        -0.00660         2.22733
| 38>    O        1.18365         0.63082         3.38115
| 39>    C        1.09093        -0.09233         4.59857
| 40>    C        2.35269        -0.89674         4.89135
| 41>    C        0.50330        -3.05043         0.19470
| 42>    C        0.42943        -3.42242        -1.13169
| 43>    C        0.31580        -4.83664        -1.33057
| 44>    C        0.30205        -5.53319        -0.13298
| 45>    S        0.37783        -4.42822         1.23056
| 46>    O        0.53285        -2.51869        -2.14343
| 47>    O        0.22670        -5.23527        -2.60953
| 48>    C       -0.68158        -1.91757        -2.59580
| 49>    C       -1.61471        -2.88648        -3.30691
| 50>    C       -0.22584        -6.51908        -2.99700
| 51>    C       -1.62866        -6.85475        -2.50746
| 52>    C        0.27719        -6.91711         0.24097
| 53>    S        1.17347        -8.16971        -0.55954
| 54>    C        0.62650        -9.38390         0.58446
| 55>    C       -0.10256        -8.77582         1.61841
| 56>    C       -0.29919        -7.40006         1.39196
| 57>    O       -0.52967        -9.27235         2.78083
| 58>    C        0.03226       -10.42380         3.38059
| 59>    C        1.54179       -10.33787         3.57197
| 60>    C        0.92620       -10.72488         0.29495
| 61>    C        0.10973       -11.79349         0.57942
| 62>    C        0.44220       -13.19172         0.45463
| 63>    C       -0.80901       -13.94598         0.47495
| 64>    C       -1.87274       -13.04933         0.67526
| 65>    C       -1.35124       -11.66429         0.77008
| 66>    O       -2.00285       -10.64812         0.88006
| 67>    C        1.70965       -13.71337         0.44583
| 68>    C        1.99808       -15.08946         0.34703
| 69>    N        2.28057       -16.19814         0.26009
| 70>    C        2.86852       -12.92284         0.59525
| 71>    N        3.83299       -12.32174         0.75745
| 72>    C       -1.05881       -15.30264         0.34586
| 73>    C       -2.37619       -15.73023         0.42319
| 74>    C       -3.42634       -14.83385         0.62428
| 75>    C       -3.18368       -13.47499         0.74982
| 76>    F       -2.64246       -17.03474         0.29884
| 77>    F       -4.68198       -15.29093         0.69667
| 78>    H        1.96076         2.24796        -0.15009
| 79>    H        1.57627         7.29780         2.23007
| 80>    H       -1.71938         4.32450         4.49685
| 81>    H        0.55737        -2.08538         2.81652
| 82>    H        0.95331         0.68053         5.35886
| 83>    H        0.20377        -0.73413         4.59084
| 84>    H        3.21582        -0.23626         4.91278
| 85>    H        2.25713        -1.38212         5.85829
| 86>    H        2.51933        -1.65642         4.13151
| 87>    H       -1.20205        -1.44631        -1.75141
| 88>    H       -0.34235        -1.13852        -3.28086
| 89>    H       -2.02943        -3.60616        -2.60459
| 90>    H       -2.43263        -2.33078        -3.75768
| 91>    H       -1.07465        -3.42150        -4.08293
| 92>    H       -0.21564        -6.46637        -4.08914
| 93>    H        0.48784        -7.28857        -2.68372
| 94>    H       -2.33469        -6.09613        -2.83688
| 95>    H       -1.92849        -7.81315        -2.92088
| 96>    H       -1.66811        -6.92242        -1.42285
| 97>    H       -0.86544        -6.78844         2.07041
| 98>    H       -0.46886       -10.46658         4.35154
| 99>    H       -0.22553       -11.33208         2.82027
|100>    H        1.86611       -11.15370         4.21133
|101>    H        2.07359       -10.41462         2.62627
|102>    H        1.80363        -9.39471         4.04583
|103>    H        1.82294       -10.89816        -0.28884
|104>    H       -0.28038       -16.03025         0.18335
|105>    H       -3.99398       -12.78043         0.90399
|106> *
|107>
|108>                          ****END OF INPUT****

CARTESIAN COORDINATES (ANGSTROEM)
---------------------------------
  C      1.445450    2.036260    0.779110
  C      1.096680    3.090980    1.586700
  C      1.593870    4.444020    1.486820
  C      0.816650    5.271280    2.410450
  C     -0.121230    4.456160    3.064710
  C     -0.006540    3.064540    2.566020
  O     -0.751570    2.146560    2.834160
  C      2.655520    4.874560    0.733800
  C      3.106140    6.210330    0.692470
  N      3.516570    7.279680    0.616090
  C      3.454940    4.046060   -0.081770
  N      4.163040    3.434970   -0.747850
  C      0.882000    6.624120    2.704820
  C      0.004370    7.127000    3.654030
  C     -0.923970    6.310040    4.298500
  C     -0.999520    4.958050    4.003730
  F      0.051470    8.430640    3.954170
  F     -1.750950    6.836640    5.211460
  C      1.158720    0.682660    1.009810
  S      1.062210   -0.417460   -0.345930
  C      0.715450   -1.742460    0.706030
  C      0.736670   -1.370470    2.033890
  C      0.997350   -0.006600    2.227330
  O      1.183650    0.630820    3.381150
  C      1.090930   -0.092330    4.598570
  C      2.352690   -0.896740    4.891350
  C      0.503300   -3.050430    0.194700
  C      0.429430   -3.422420   -1.131690
  C      0.315800   -4.836640   -1.330570
  C      0.302050   -5.533190   -0.132980
  S      0.377830   -4.428220    1.230560
  O      0.532850   -2.518690   -2.143430
  O      0.226700   -5.235270   -2.609530
  C     -0.681580   -1.917570   -2.595800
  C     -1.614710   -2.886480   -3.306910
  C     -0.225840   -6.519080   -2.997000
  C     -1.628660   -6.854750   -2.507460
  C      0.277190   -6.917110    0.240970
  S      1.173470   -8.169710   -0.559540
  C      0.626500   -9.383900    0.584460
  C     -0.102560   -8.775820    1.618410
  C     -0.299190   -7.400060    1.391960
  O     -0.529670   -9.272350    2.780830
  C      0.032260  -10.423800    3.380590
  C      1.541790  -10.337870    3.571970
  C      0.926200  -10.724880    0.294950
  C      0.109730  -11.793490    0.579420
  C      0.442200  -13.191720    0.454630
  C     -0.809010  -13.945980    0.474950
  C     -1.872740  -13.049330    0.675260
  C     -1.351240  -11.664290    0.770080
  O     -2.002850  -10.648120    0.880060
  C      1.709650  -13.713370    0.445830
  C      1.998080  -15.089460    0.347030
  N      2.280570  -16.198140    0.260090
  C      2.868520  -12.922840    0.595250
  N      3.832990  -12.321740    0.757450
  C     -1.058810  -15.302640    0.345860
  C     -2.376190  -15.730230    0.423190
  C     -3.426340  -14.833850    0.624280
  C     -3.183680  -13.474990    0.749820
  F     -2.642460  -17.034740    0.298840
  F     -4.681980  -15.290930    0.696670
  H      1.960760    2.247960   -0.150090
  H      1.576270    7.297800    2.230070
  H     -1.719380    4.324500    4.496850
  H      0.557370   -2.085380    2.816520
  H      0.953310    0.680530    5.358860
  H      0.203770   -0.734130    4.590840
  H      3.215820   -0.236260    4.912780
  H      2.257130   -1.382120    5.858290
  H      2.519330   -1.656420    4.131510
  H     -1.202050   -1.446310   -1.751410
  H     -0.342350   -1.138520   -3.280860
  H     -2.029430   -3.606160   -2.604590
  H     -2.432630   -2.330780   -3.757680
  H     -1.074650   -3.421500   -4.082930
  H     -0.215640   -6.466370   -4.089140
  H      0.487840   -7.288570   -2.683720
  H     -2.334690   -6.096130   -2.836880
  H     -1.928490   -7.813150   -2.920880
  H     -1.668110   -6.922420   -1.422850
  H     -0.865440   -6.788440    2.070410
  H     -0.468860  -10.466580    4.351540
  H     -0.225530  -11.332080    2.820270
  H      1.866110  -11.153700    4.211330
  H      2.073590  -10.414620    2.626270
  H      1.803630   -9.394710    4.045830
  H      1.822940  -10.898160   -0.288840
  H     -0.280380  -16.030250    0.183350
  H     -3.993980  -12.780430    0.903990

 Total Charge           Charge          ....    0
 Multiplicity           Mult            ....    1
 Number of Electrons    NEL             ....  464
 Basis Dimension        Dim             .... 1034

ORBITAL ENERGIES
----------------

  NO   OCC          E(Eh)            E(eV)
   0   2.0000     -89.003098     -2421.8974
   1   2.0000     -89.000420     -2421.8245
   2   2.0000     -88.995602     -2421.6934
   3   2.0000     -24.839578      -675.9193
   4   2.0000     -24.837986      -675.8760
   5   2.0000     -24.828879      -675.6281
   6   2.0000     -24.826405      -675.5608
   7   2.0000     -19.309988      -525.4515
   8   2.0000     -19.304148      -525.2926
   9   2.0000     -19.303249      -525.2681
  10   2.0000     -19.288777      -524.8743
  11   2.0000     -19.262120      -524.1489
  12   2.0000     -19.244011      -523.6562
  13   2.0000     -14.457902      -393.4195
  14   2.0000     -14.457372      -393.4051
  15   2.0000     -14.444052      -393.0426
  16   2.0000     -14.443731      -393.0339
  17   2.0000     -10.425893      -283.7030
  18   2.0000     -10.425326      -283.6875
  19   2.0000     -10.413561      -283.3674
  20   2.0000     -10.412437      -283.3368
  21   2.0000     -10.412279      -283.3325
  22   2.0000     -10.405633      -283.1517
  23   2.0000     -10.397618      -282.9336
  24   2.0000     -10.397406      -282.9278
  25   2.0000     -10.393280      -282.8155
  26   2.0000     -10.387524      -282.6589
  27   2.0000     -10.385649      -282.6079
  28   2.0000     -10.382776      -282.5297
  29   2.0000     -10.380803      -282.4760
  30   2.0000     -10.374107      -282.2938
  31   2.0000     -10.373017      -282.2641
  32   2.0000     -10.371476      -282.2222
  33   2.0000     -10.371455      -282.2216
  34   2.0000     -10.369857      -282.1782
  35   2.0000     -10.369182      -282.1598
  36   2.0000     -10.368617      -282.1444
  37   2.0000     -10.363063      -281.9933
  38   2.0000     -10.362324      -281.9732
  39   2.0000     -10.360712      -281.9293
  40   2.0000     -10.358981      -281.8822
  41   2.0000     -10.357996      -281.8554
  42   2.0000     -10.357587      -281.8443
  43   2.0000     -10.354491      -281.7600
  44   2.0000     -10.352515      -281.7063
  45   2.0000     -10.349103      -281.6134
  46   2.0000     -10.348770      -281.6043
  47   2.0000     -10.345398      -281.5126
  48   2.0000     -10.345201      -281.5072
  49   2.0000     -10.343930      -281.4726
  50   2.0000     -10.343373      -281.4575
  51   2.0000     -10.340035      -281.3666
  52   2.0000     -10.338983      -281.3380
  53   2.0000     -10.335969      -281.2560
  54   2.0000     -10.335770      -281.2506
  55   2.0000     -10.328871      -281.0629
  56   2.0000     -10.327217      -281.0179
  57   2.0000     -10.325335      -280.9667
  58   2.0000     -10.321230      -280.8549
  59   2.0000     -10.306304      -280.4488
  60   2.0000     -10.305099      -280.4160
  61   2.0000     -10.304181      -280.3910
  62   2.0000     -10.297930      -280.2209
  63   2.0000      -8.116932      -220.8730
  64   2.0000      -8.113930      -220.7913
  65   2.0000      -8.108754      -220.6504
  66   2.0000      -6.076674      -165.3547
  67   2.0000      -6.073765      -165.2756
  68   2.0000      -6.072630      -165.2447
  69   2.0000      -6.069806      -165.1678
  70   2.0000      -6.068531      -165.1331
  71   2.0000      -6.068438      -165.1306
  72   2.0000      -6.065350      -165.0466
  73   2.0000      -6.064231      -165.0161
  74   2.0000      -6.060697      -164.9199
  75   2.0000      -1.369444       -37.2645
  76   2.0000      -1.357791       -36.9474
  77   2.0000      -1.354328       -36.8531
  78   2.0000      -1.342722       -36.5373
  79   2.0000      -1.217909       -33.1410
  80   2.0000      -1.215350       -33.0713
  81   2.0000      -1.214789       -33.0561
  82   2.0000      -1.189474       -32.3672
  83   2.0000      -1.179290       -32.0901
  84   2.0000      -1.160443       -31.5772
  85   2.0000      -1.067608       -29.0511
  86   2.0000      -1.054584       -28.6967
  87   2.0000      -1.052804       -28.6482
  88   2.0000      -1.047962       -28.5165
  89   2.0000      -1.042498       -28.3678
  90   2.0000      -1.039023       -28.2732
  91   2.0000      -1.034213       -28.1424
  92   2.0000      -1.025478       -27.9047
  93   2.0000      -1.023564       -27.8526
  94   2.0000      -1.003972       -27.3195
  95   2.0000      -0.989590       -26.9281
  96   2.0000      -0.957903       -26.0659
  97   2.0000      -0.947482       -25.7823
  98   2.0000      -0.940981       -25.6054
  99   2.0000      -0.931625       -25.3508
 100   2.0000      -0.923727       -25.1359
 101   2.0000      -0.919808       -25.0293
 102   2.0000      -0.915738       -24.9185
 103   2.0000      -0.912052       -24.8182
 104   2.0000      -0.906318       -24.6622
 105   2.0000      -0.905447       -24.6385
 106   2.0000      -0.889833       -24.2136
 107   2.0000      -0.879739       -23.9389
 108   2.0000      -0.876266       -23.8444
 109   2.0000      -0.866336       -23.5742
 110   2.0000      -0.856573       -23.3085
 111   2.0000      -0.848056       -23.0768
 112   2.0000      -0.825958       -22.4754
 113   2.0000      -0.817123       -22.2351
 114   2.0000      -0.812888       -22.1198
 115   2.0000      -0.802793       -21.8451
 116   2.0000      -0.788081       -21.4448
 117   2.0000      -0.783415       -21.3178
 118   2.0000      -0.781851       -21.2752
 119   2.0000      -0.771499       -20.9935
 120   2.0000      -0.767295       -20.8792
 121   2.0000      -0.757153       -20.6032
 122   2.0000      -0.750760       -20.4292
 123   2.0000      -0.737250       -20.0616
 124   2.0000      -0.736674       -20.0459
 125   2.0000      -0.731545       -19.9063
 126   2.0000      -0.720423       -19.6037
 127   2.0000      -0.710308       -19.3285
 128   2.0000      -0.708552       -19.2807
 129   2.0000      -0.694707       -18.9039
 130   2.0000      -0.690308       -18.7842
 131   2.0000      -0.686604       -18.6834
 132   2.0000      -0.682643       -18.5757
 133   2.0000      -0.674474       -18.3534
 134   2.0000      -0.671018       -18.2593
 135   2.0000      -0.669803       -18.2263
 136   2.0000      -0.669451       -18.2167
 137   2.0000      -0.656166       -17.8552
 138   2.0000      -0.652019       -17.7423
 139   2.0000      -0.650081       -17.6896
 140   2.0000      -0.643201       -17.5024
 141   2.0000      -0.637339       -17.3429
 142   2.0000      -0.629961       -17.1421
 143   2.0000      -0.628035       -17.0897
 144   2.0000      -0.625012       -17.0074
 145   2.0000      -0.621843       -16.9212
 146   2.0000      -0.618194       -16.8219
 147   2.0000      -0.616141       -16.7660
 148   2.0000      -0.614678       -16.7262
 149   2.0000      -0.608669       -16.5627
 150   2.0000      -0.604966       -16.4620
 151   2.0000      -0.598024       -16.2731
 152   2.0000      -0.592529       -16.1235
 153   2.0000      -0.591133       -16.0856
 154   2.0000      -0.588707       -16.0195
 155   2.0000      -0.587724       -15.9928
 156   2.0000      -0.585944       -15.9443
 157   2.0000      -0.584919       -15.9164
 158   2.0000      -0.580050       -15.7840
 159   2.0000      -0.579286       -15.7632
 160   2.0000      -0.577848       -15.7241
 161   2.0000      -0.577481       -15.7140
 162   2.0000      -0.570855       -15.5337
 163   2.0000      -0.570051       -15.5119
 164   2.0000      -0.568359       -15.4658
 165   2.0000      -0.564441       -15.3592
 166   2.0000      -0.562319       -15.3015
 167   2.0000      -0.559390       -15.2218
 168   2.0000      -0.552227       -15.0269
 169   2.0000      -0.550408       -14.9774
 170   2.0000      -0.546776       -14.8785
 171   2.0000      -0.541957       -14.7474
 172   2.0000      -0.541143       -14.7253
 173   2.0000      -0.538675       -14.6581
 174   2.0000      -0.536225       -14.5914
 175   2.0000      -0.534549       -14.5458
 176   2.0000      -0.532592       -14.4926
 177   2.0000      -0.529012       -14.3951
 178   2.0000      -0.523682       -14.2501
 179   2.0000      -0.521603       -14.1936
 180   2.0000      -0.517724       -14.0880
 181   2.0000      -0.515130       -14.0174
 182   2.0000      -0.514312       -13.9951
 183   2.0000      -0.511992       -13.9320
 184   2.0000      -0.506659       -13.7869
 185   2.0000      -0.505011       -13.7420
 186   2.0000      -0.502943       -13.6858
 187   2.0000      -0.502023       -13.6607
 188   2.0000      -0.498090       -13.5537
 189   2.0000      -0.495028       -13.4704
 190   2.0000      -0.494207       -13.4480
 191   2.0000      -0.492144       -13.3919
 192   2.0000      -0.490605       -13.3500
 193   2.0000      -0.488660       -13.2971
 194   2.0000      -0.485589       -13.2135
 195   2.0000      -0.484795       -13.1919
 196   2.0000      -0.484367       -13.1803
 197   2.0000      -0.481756       -13.1092
 198   2.0000      -0.477912       -13.0047
 199   2.0000      -0.476857       -12.9759
 200   2.0000      -0.472031       -12.8446
 201   2.0000      -0.469750       -12.7825
 202   2.0000      -0.467914       -12.7326
 203   2.0000      -0.465637       -12.6706
 204   2.0000      -0.462506       -12.5854
 205   2.0000      -0.459798       -12.5117
 206   2.0000      -0.458233       -12.4691
 207   2.0000      -0.456192       -12.4136
 208   2.0000      -0.454692       -12.3728
 209   2.0000      -0.452165       -12.3040
 210   2.0000      -0.448827       -12.2132
 211   2.0000      -0.447592       -12.1796
 212   2.0000      -0.443009       -12.0549
 213   2.0000      -0.439938       -11.9713
 214   2.0000      -0.437079       -11.8935
 215   2.0000      -0.435571       -11.8525
 216   2.0000      -0.429115       -11.6768
 217   2.0000      -0.415590       -11.3088
 218   2.0000      -0.401159       -10.9161
 219   2.0000      -0.397419       -10.8143
 220   2.0000      -0.389180       -10.5901
 221   2.0000      -0.382263       -10.4019
 222   2.0000      -0.377129       -10.2622
 223   2.0000      -0.364885        -9.9290
 224   2.0000      -0.363593        -9.8939
 225   2.0000      -0.354405        -9.6438
 226   2.0000      -0.349403        -9.5077
 227   2.0000      -0.347676        -9.4607
 228   2.0000      -0.338000        -9.1975
 229   2.0000      -0.337363        -9.1801
 230   2.0000      -0.315452        -8.5839
 231   2.0000      -0.286690        -7.8012
 232   0.0000      -0.076189        -2.0732
 233   0.0000      -0.062734        -1.7071
 234   0.0000      -0.044090        -1.1998
 235   0.0000      -0.031903        -0.8681
 236   0.0000      -0.005321        -0.1448

MULLIKEN ATOMIC CHARGES
-----------------------
   0 C :    0.048091
   1 C :   -0.135747
   2 C :    0.268795
   3 C :    0.026571
   4 C :   -0.055305
   5 C :    0.204678
   6 O :   -0.176549
   7 C :   -0.371714
   8 C :   -0.132964
   9 N :    0.104828
  10 C :   -0.146232
  11 N :    0.113222
  12 C :   -0.087021
  13 C :    0.240328
  14 C :    0.241407
  15 C :   -0.102088
  16 F :   -0.183539
  17 F :   -0.187209
  18 C :   -0.200035
  19 S :    0.183219
  20 C :   -0.031876
  21 C :   -0.153289
  22 C :    0.320274
  23 O :   -0.298698
  24 C :    0.124608
  25 C :   -0.079939
  26 C :   -0.080863
  27 C :    0.102834
  28 C :    0.263559
  29 C :   -0.217951
  30 S :    0.141429
  31 O :   -0.358498
  32 O :   -0.319371
  33 C :    0.144276
  34 C :   -0.066129
  35 C :    0.124504
  36 C :   -0.084573
  37 C :   -0.061037
  38 S :    0.153023
  39 C :   -0.267841
  40 C :    0.312059
  41 C :   -0.062346
  42 O :   -0.297736
  43 C :    0.140563
  44 C :   -0.088714
  45 C :    0.064735
  46 C :   -0.197183
  47 C :    0.265083
  48 C :    0.032968
  49 C :   -0.062178
  50 C :    0.188709
  51 O :   -0.161207
  52 C :   -0.358975
  53 C :   -0.128715
  54 N :    0.113649
  55 C :   -0.141538
  56 N :    0.113688
  57 C :   -0.087514
  58 C :    0.243753
  59 C :    0.239998
  60 C :   -0.089120
  61 F :   -0.179055
  62 F :   -0.182649
  63 H :    0.050048
  64 H :    0.043440
  65 H :    0.036422
  66 H :    0.017643
  67 H :    0.054882
  68 H :    0.043578
  69 H :    0.059054
  70 H :    0.049200
  71 H :    0.045057
  72 H :    0.031671
  73 H :    0.051775
  74 H :    0.036351
  75 H :    0.044239
  76 H :    0.054728
  77 H :    0.052321
  78 H :    0.043223
  79 H :    0.049139
  80 H :    0.053205
  81 H :    0.061146
  82 H :    0.026242
  83 H :    0.050617
  84 H :    0.045560
  85 H :    0.055550
  86 H :    0.059787
  87 H :    0.051840
  88 H :    0.057885
  89 H :    0.046824
  90 H :    0.043121
Sum of atomic charges:    0.0000000

LOEWDIN ATOMIC CHARGES
----------------------
   0 C :    0.060913
   1 C :   -0.119603
   2 C :    0.079060
   3 C :   -0.021535
   4 C :   -0.046253
   5 C :    0.082659
   6 O :   -0.147843
   7 C :   -0.151099
   8 C :   -0.014844
   9 N :   -0.058104
  10 C :   -0.018721
  11 N :   -0.056113
  12 C :   -0.018758
  13 C :    0.073619
  14 C :    0.072887
  15 C :   -0.012744
  16 F :   -0.050598
  17 F :   -0.052769
  18 C :   -0.228537
  19 S :    0.481025
  20 C :   -0.145881
  21 C :   -0.107698
  22 C :    0.070240
  23 O :   -0.055038
  24 C :    0.086008
  25 C :   -0.074115
  26 C :   -0.208146
  27 C :    0.004264
  28 C :    0.021438
  29 C :   -0.238915
  30 S :    0.438636
  31 O :   -0.123131
  32 O :   -0.080486
  33 C :    0.081184
  34 C :   -0.076490
  35 C :    0.072782
  36 C :   -0.075213
  37 C :   -0.158949
  38 S :    0.456360
  39 C :   -0.239071
  40 C :    0.074145
  41 C :   -0.082711
  42 O :   -0.059266
  43 C :    0.084100
  44 C :   -0.072496
  45 C :    0.050886
  46 C :   -0.129814
  47 C :    0.075275
  48 C :   -0.021427
  49 C :   -0.049585
  50 C :    0.076985
  51 O :   -0.138457
  52 C :   -0.146076
  53 C :   -0.016841
  54 N :   -0.049114
  55 C :   -0.019208
  56 N :   -0.053237
  57 C :   -0.017436
  58 C :    0.076852
  59 C :    0.074851
  60 C :   -0.007509
  61 F :   -0.046456
  62 F :   -0.048574
  63 H :    0.046096
  64 H :    0.053197
  65 H :    0.052846
  66 H :    0.029160
  67 H :    0.033020
  68 H :    0.019278
  69 H :    0.037114
  70 H :    0.037252
  71 H :    0.028356
  72 H :    0.008181
  73 H :    0.028477
  74 H :    0.023838
  75 H :    0.035472
  76 H :    0.032292
  77 H :    0.031664
  78 H :   -0.005931
  79 H :    0.031845
  80 H :    0.041215
  81 H :    0.031418
  82 H :    0.036798
  83 H :    0.032289
  84 H :    0.016551
  85 H :    0.041537
  86 H :    0.030112
  87 H :    0.034833
  88 H :    0.047310
  89 H :    0.054441
  90 H :    0.056033

  Mayer bond orders larger than 0.100000
B(  0-C ,  1-C ) :   1.5738 B(  0-C , 18-C ) :   1.2493 B(  0-C , 63-H ) :   0.9287
B(  1-C ,  2-C ) :   1.1093 B(  1-C ,  5-C ) :   0.9766 B(  2-C ,  3-C ) :   1.0170
B(  2-C ,  7-C ) :   1.6377 B(  3-C ,  4-C ) :   1.3488 B(  3-C , 12-C ) :   1.3329
B(  4-C ,  5-C ) :   0.9413 B(  4-C , 15-C ) :   1.3487 B(  5-C ,  6-O ) :   2.2027
B(  7-C ,  8-C ) :   1.1286 B(  7-C , 10-C ) :   1.1337 B(  8-C ,  9-N ) :   2.9751
B( 10-C , 11-N ) :   2.9865 B( 12-C , 13-C ) :   1.3503 B( 12-C , 64-H ) :   0.9893
B( 13-C , 14-C ) :   1.2978 B( 13-C , 16-F ) :   1.1098 B( 14-C , 15-C ) :   1.3264
B( 14-C , 17-F ) :   1.0978 B( 15-C , 65-H ) :   1.0154 B( 18-C , 19-S ) :   1.0614
B( 18-C , 22-C ) :   1.3690 B( 19-S , 20-C ) :   1.1778 B( 20-C , 21-C ) :   1.4494
B( 20-C , 26-C ) :   1.1624 B( 21-C , 22-C ) :   1.2332 B( 21-C , 66-H ) :   0.9924
B( 22-C , 23-O ) :   1.2115 B( 23-O , 24-C ) :   0.9078 B( 24-C , 25-C ) :   1.0930
B( 24-C , 67-H ) :   0.9605 B( 24-C , 68-H ) :   0.9564 B( 25-C , 69-H ) :   0.9658
B( 25-C , 70-H ) :   0.9669 B( 25-C , 71-H ) :   0.9694 B( 26-C , 27-C ) :   1.5256
B( 26-C , 29-C ) :   0.1092 B( 26-C , 30-S ) :   1.1054 B( 27-C , 28-C ) :   1.2032
B( 27-C , 31-O ) :   1.1557 B( 28-C , 29-C ) :   1.4699 B( 28-C , 32-O ) :   1.2194
B( 29-C , 30-S ) :   1.0866 B( 29-C , 37-C ) :   1.0863 B( 31-O , 33-C ) :   0.8878
B( 32-O , 35-C ) :   0.9047 B( 33-C , 34-C ) :   1.1090 B( 33-C , 72-H ) :   0.9504
B( 33-C , 73-H ) :   0.9630 B( 34-C , 74-H ) :   0.9648 B( 34-C , 75-H ) :   0.9623
B( 34-C , 76-H ) :   0.9643 B( 35-C , 36-C ) :   1.0865 B( 35-C , 77-H ) :   0.9585
B( 35-C , 78-H ) :   0.9464 B( 36-C , 79-H ) :   0.9640 B( 36-C , 80-H ) :   0.9632
B( 36-C , 81-H ) :   0.9664 B( 37-C , 38-S ) :   1.1531 B( 37-C , 41-C ) :   1.4763
B( 38-S , 39-C ) :   1.0496 B( 39-C , 40-C ) :   1.3309 B( 39-C , 45-C ) :   1.2391
B( 40-C , 41-C ) :   1.2652 B( 40-C , 42-O ) :   1.2211 B( 41-C , 82-H ) :   1.0018
B( 42-O , 43-C ) :   0.9102 B( 43-C , 44-C ) :   1.0909 B( 43-C , 83-H ) :   0.9596
B( 43-C , 84-H ) :   0.9365 B( 44-C , 85-H ) :   0.9639 B( 44-C , 86-H ) :   0.9658
B( 44-C , 87-H ) :   0.9643 B( 45-C , 46-C ) :   1.5684 B( 45-C , 88-H ) :   0.9413
B( 46-C , 47-C ) :   1.0819 B( 46-C , 50-C ) :   0.9712 B( 47-C , 48-C ) :   1.0232
B( 47-C , 52-C ) :   1.6588 B( 48-C , 49-C ) :   1.3406 B( 48-C , 57-C ) :   1.3339
B( 49-C , 50-C ) :   0.9465 B( 49-C , 60-C ) :   1.3511 B( 50-C , 51-O ) :   2.2048
B( 52-C , 53-C ) :   1.1208 B( 52-C , 55-C ) :   1.1414 B( 53-C , 54-N ) :   2.9815
B( 55-C , 56-N ) :   2.9618 B( 57-C , 58-C ) :   1.3491 B( 57-C , 89-H ) :   0.9896
B( 58-C , 59-C ) :   1.2942 B( 58-C , 61-F ) :   1.1133 B( 59-C , 60-C ) :   1.3277
B( 59-C , 62-F ) :   1.1021 B( 60-C , 90-H ) :   1.0145

-----------------------------------------------------------------------------
         ABSORPTION SPECTRUM VIA TRANSITION ELECTRIC DIPOLE MOMENTS
-----------------------------------------------------------------------------
State   Energy  Wavelength   fosc         T2         TX        TY        TZ
        (cm-1)    (nm)                  (au**2)     (au)      (au)      (au)
-----------------------------------------------------------------------------
   0   21204.2    471.6   2.606522735  40.46827   0.41931   6.34228   0.26065
   1   26252.8    380.9   0.076324732   0.95712   0.92011  -0.32542   0.06797
   2   28396.5    352.2   0.007810395   0.09055  -0.29495   0.05834  -0.01223
   3   28997.7    344.9   0.015691787   0.17815   0.10919  -0.35860  -0.19399
   4   31665.6    315.8   0.135134887   1.40493  -0.00932   1.17527  -0.15356
   5   32362.1    309.0   0.044979299   0.45756  -0.58599   0.33725   0.02103
   6   33625.0    297.4   0.092055677   0.90129  -0.02197   0.11851   0.94168
   7   34311.7    291.4   0.033704808   0.32339  -0.39326  -0.25370   0.32307
   8   34332.4    291.3   0.219594591   2.10568  -1.44538  -0.02206  -0.12677
   9   35144.6    284.5   0.061257305   0.57382   0.19123  -0.64303  -0.35179
  10   35923.5    278.4   0.113471674   1.03988   0.88510  -0.18619  -0.47096
  11   36118.9    276.9   0.076402002   0.69638   0.73610  -0.30872  -0.24338
  12   37119.0    269.4   0.375412880   3.32957  -0.62439  -0.51513  -1.63535
  13   37228.3    268.6   0.020380273   0.18022  -0.16130  -0.08922   0.38242
  14   37695.0    265.3   0.015108163   0.13195   0.12763  -0.24415  -0.23674
  15   38791.7    257.8   1.225949725  10.40423   2.79844  -0.00181  -1.60405
  16   39421.8    253.7   0.074422216   0.62150  -0.69893  -0.26180   0.25390
  17   40252.4    248.4   0.121470287   0.99347  -0.60292  -0.77575   0.16785

Dispersion correction           -0.057974907
FINAL SINGLE POINT ENERGY     -4030.601233845550

DIPOLE MOMENT
-------------
                                X             Y             Z
Electronic contribution:     -5.52390      11.75632       8.30652
Nuclear contribution   :      2.66396     -13.66000      -7.40585
                        -----------------------------------------
Total Dipole Moment    :     -2.85994      -1.90368       0.90067
                        -----------------------------------------
Magnitude (a.u.)       :      3.55169
Magnitude (Debye)      :      9.02767

Rotational constants in cm-1:     0.003066     0.000317     0.000311
Rotational constants in MHz :    91.922843     9.491403     9.326871

                             ****ORCA TERMINATED NORMALLY****
TOTAL RUN TIME: 0 days 0 hours 8 minutes 7 seconds 55 msec
