                         Program Version 4.2.0 -  RELEASE  -
|  1> # ORCA input file
|  2> # SCF done       -177.371657664847          0.000569711824
|  3> ! wb97x-d3 def2-SVP def2/J RIJCOSX Grid4 TightSCF
|  4> %maxcore 5000
|  5> %tddft
|  6>     Mode sTDA
|  7>     Ethresh 5.0
|  8>     maxcore 5000
|  9> end
| 10>
| 11> %pal
| 12>   nprocs 6
| 13>   end
| 14> * xyz 0 1
| 15>    C       -0.20036         2.86135         0.92530
| 16>    C       -0.49473         4.11251         1.41809
| 17>    C       -0.15652         5.37114         0.78793
| 18>    C       -0.67424         6.44133         1.64391
| 19>    C       -1.30834         5.86278         2.75633
| 20>    C       -1.22217         4.39055         2.65665
| 21>    O       -1.68141         3.58982         3.45209
| 22>    C        0.52457         5.56486        -0.38669
| 23>    C        0.81148         6.83322        -0.93501
| 24>    N        1.07595         7.83105        -1.43674
| 25>    C        1.03814         4.54972        -1.22046
| 26>    N        1.48784         3.78750        -1.95310
| 27>    C       -0.62588         7.82050         1.51923
| 28>    C       -1.21537         8.58635         2.51514
| 29>    C       -1.84207         8.00210         3.61550
| 30>    C       -1.89518         6.62344         3.74741
| 31>    F       -1.17855         9.91940         2.41239
| 32>    F       -2.39754         8.77932         4.55299
| 33>    C       -0.46469         1.59541         1.45554
| 34>    S       -1.24427         1.22855         2.97506
| 35>    C       -1.06779        -0.46365         2.68376
| 36>    C       -0.43598        -0.73526         1.45490
| 37>    C       -0.09774         0.42370         0.78001
| 38>    C       -1.48700        -1.44330         3.60310
| 39>    C       -2.09827        -1.20543         4.83426
| 40>    C       -2.32188        -2.38849         5.56574
| 41>    C       -1.90511        -3.52897         4.87589
| 42>    S       -1.23779        -3.13439         3.32022
| 43>    O       -2.39056         0.06735         5.24241
| 44>    O       -2.92635        -2.53405         6.76082
| 45>    C       -3.66680         0.56782         4.83342
| 46>    C       -4.81101         0.05122         5.69513
| 47>    C       -2.56962        -1.64497         7.81981
| 48>    C       -1.35936        -2.17425         8.57692
| 49>    C       -1.96844        -4.84253         5.38443
| 50>    S       -2.53097        -5.13415         6.99290
| 51>    C       -2.21911        -6.84320         6.81637
| 52>    C       -1.68527        -7.12933         5.53026
| 53>    C       -1.54816        -5.99866         4.73746
| 54>    O       -1.35831        -8.39614         5.24893
| 55>    C       -0.97482        -8.73643         3.92572
| 56>    C       -2.16779        -8.79028         2.97934
| 57>    C       -2.48228        -7.85743         7.73081
| 58>    C       -2.94564        -7.78124         9.02756
| 59>    C       -3.25274        -8.90870         9.87659
| 60>    C       -3.58130        -8.38112        11.20359
| 61>    C       -3.50321        -6.97923        11.16105
| 62>    C       -3.11700        -6.55171         9.79789
| 63>    O       -2.95715        -5.40015         9.43111
| 64>    C       -3.28261       -10.23522         9.52716
| 65>    C       -3.59372       -11.27991        10.42218
| 66>    N       -3.83257       -12.17599        11.09906
| 67>    C       -3.03428       -10.75651         8.23987
| 68>    N       -2.86671       -11.27392         7.22782
| 69>    C       -3.93280        -9.01596        12.38377
| 70>    C       -4.19717        -8.22714        13.49439
| 71>    C       -4.11687        -6.83646        13.44172
| 72>    C       -3.76590        -6.19391        12.26503
| 73>    F       -4.53763        -8.82187        14.64454
| 74>    F       -4.38167        -6.11338        14.53830
| 75>    O       -0.27190        -2.02470         1.10100
| 76>    C        0.52022        -2.32613        -0.03743
| 77>    C        2.00918        -2.14982         0.23247
| 78>    H        0.31677         2.82632        -0.02560
| 79>    H       -0.15462         8.32279         0.69063
| 80>    H       -2.37785         6.16749         4.59697
| 81>    H        0.39542         0.46307        -0.17477
| 82>    H       -3.56907         1.65176         4.91963
| 83>    H       -3.84311         0.31223         3.78145
| 84>    H       -4.67239         0.34979         6.73091
| 85>    H       -4.87258        -1.03410         5.64949
| 86>    H       -5.74667         0.46838         5.33300
| 87>    H       -2.37577        -0.64301         7.42847
| 88>    H       -3.44497        -1.62526         8.47256
| 89>    H       -1.12412        -1.50695         9.40119
| 90>    H       -0.49636        -2.23513         7.91669
| 91>    H       -1.57810        -3.16506         8.96648
| 92>    H       -1.15883        -5.97481         3.73553
| 93>    H       -0.21179        -8.03947         3.55999
| 94>    H       -0.52903        -9.72886         4.02516
| 95>    H       -2.63459        -7.81239         2.88604
| 96>    H       -1.84006        -9.12006         1.99777
| 97>    H       -2.90488        -9.49242         3.36023
| 98>    H       -2.27535        -8.84500         7.33609
| 99>    H       -4.00793       -10.08666        12.47824
|100>    H       -3.70353        -5.11846        12.21946
|101>    H        0.29499        -3.37391        -0.24975
|102>    H        0.20114        -1.71728        -0.89092
|103>    H        2.30637        -2.76627         1.07700
|104>    H        2.57646        -2.45165        -0.64277
|105>    H        2.24318        -1.11291         0.46163
|106> *
|107>
|108>                          ****END OF INPUT****

CARTESIAN COORDINATES (ANGSTROEM)
---------------------------------
  C     -0.200360    2.861350    0.925300
  C     -0.494730    4.112510    1.418090
  C     -0.156520    5.371140    0.787930
  C     -0.674240    6.441330    1.643910
  C     -1.308340    5.862780    2.756330
  C     -1.222170    4.390550    2.656650
  O     -1.681410    3.589820    3.452090
  C      0.524570    5.564860   -0.386690
  C      0.811480    6.833220   -0.935010
  N      1.075950    7.831050   -1.436740
  C      1.038140    4.549720   -1.220460
  N      1.487840    3.787500   -1.953100
  C     -0.625880    7.820500    1.519230
  C     -1.215370    8.586350    2.515140
  C     -1.842070    8.002100    3.615500
  C     -1.895180    6.623440    3.747410
  F     -1.178550    9.919400    2.412390
  F     -2.397540    8.779320    4.552990
  C     -0.464690    1.595410    1.455540
  S     -1.244270    1.228550    2.975060
  C     -1.067790   -0.463650    2.683760
  C     -0.435980   -0.735260    1.454900
  C     -0.097740    0.423700    0.780010
  C     -1.487000   -1.443300    3.603100
  C     -2.098270   -1.205430    4.834260
  C     -2.321880   -2.388490    5.565740
  C     -1.905110   -3.528970    4.875890
  S     -1.237790   -3.134390    3.320220
  O     -2.390560    0.067350    5.242410
  O     -2.926350   -2.534050    6.760820
  C     -3.666800    0.567820    4.833420
  C     -4.811010    0.051220    5.695130
  C     -2.569620   -1.644970    7.819810
  C     -1.359360   -2.174250    8.576920
  C     -1.968440   -4.842530    5.384430
  S     -2.530970   -5.134150    6.992900
  C     -2.219110   -6.843200    6.816370
  C     -1.685270   -7.129330    5.530260
  C     -1.548160   -5.998660    4.737460
  O     -1.358310   -8.396140    5.248930
  C     -0.974820   -8.736430    3.925720
  C     -2.167790   -8.790280    2.979340
  C     -2.482280   -7.857430    7.730810
  C     -2.945640   -7.781240    9.027560
  C     -3.252740   -8.908700    9.876590
  C     -3.581300   -8.381120   11.203590
  C     -3.503210   -6.979230   11.161050
  C     -3.117000   -6.551710    9.797890
  O     -2.957150   -5.400150    9.431110
  C     -3.282610  -10.235220    9.527160
  C     -3.593720  -11.279910   10.422180
  N     -3.832570  -12.175990   11.099060
  C     -3.034280  -10.756510    8.239870
  N     -2.866710  -11.273920    7.227820
  C     -3.932800   -9.015960   12.383770
  C     -4.197170   -8.227140   13.494390
  C     -4.116870   -6.836460   13.441720
  C     -3.765900   -6.193910   12.265030
  F     -4.537630   -8.821870   14.644540
  F     -4.381670   -6.113380   14.538300
  O     -0.271900   -2.024700    1.101000
  C      0.520220   -2.326130   -0.037430
  C      2.009180   -2.149820    0.232470
  H      0.316770    2.826320   -0.025600
  H     -0.154620    8.322790    0.690630
  H     -2.377850    6.167490    4.596970
  H      0.395420    0.463070   -0.174770
  H     -3.569070    1.651760    4.919630
  H     -3.843110    0.312230    3.781450
  H     -4.672390    0.349790    6.730910
  H     -4.872580   -1.034100    5.649490
  H     -5.746670    0.468380    5.333000
  H     -2.375770   -0.643010    7.428470
  H     -3.444970   -1.625260    8.472560
  H     -1.124120   -1.506950    9.401190
  H     -0.496360   -2.235130    7.916690
  H     -1.578100   -3.165060    8.966480
  H     -1.158830   -5.974810    3.735530
  H     -0.211790   -8.039470    3.559990
  H     -0.529030   -9.728860    4.025160
  H     -2.634590   -7.812390    2.886040
  H     -1.840060   -9.120060    1.997770
  H     -2.904880   -9.492420    3.360230
  H     -2.275350   -8.845000    7.336090
  H     -4.007930  -10.086660   12.478240
  H     -3.703530   -5.118460   12.219460
  H      0.294990   -3.373910   -0.249750
  H      0.201140   -1.717280   -0.890920
  H      2.306370   -2.766270    1.077000
  H      2.576460   -2.451650   -0.642770
  H      2.243180   -1.112910    0.461630

 Total Charge           Charge          ....    0
 Multiplicity           Mult            ....    1
 Number of Electrons    NEL             ....  464
 Basis Dimension        Dim             .... 1034

ORBITAL ENERGIES
----------------

  NO   OCC          E(Eh)            E(eV)
   0   2.0000     -89.001417     -2421.8517
   1   2.0000     -88.999343     -2421.7952
   2   2.0000     -88.981854     -2421.3193
   3   2.0000     -24.838962      -675.9025
   4   2.0000     -24.837254      -675.8560
   5   2.0000     -24.826524      -675.5641
   6   2.0000     -24.824338      -675.5046
   7   2.0000     -19.309981      -525.4513
   8   2.0000     -19.303648      -525.2790
   9   2.0000     -19.296023      -525.0715
  10   2.0000     -19.293314      -524.9978
  11   2.0000     -19.268275      -524.3164
  12   2.0000     -19.248876      -523.7885
  13   2.0000     -14.460822      -393.4990
  14   2.0000     -14.455655      -393.3584
  15   2.0000     -14.440577      -392.9481
  16   2.0000     -14.438373      -392.8881
  17   2.0000     -10.425143      -283.6826
  18   2.0000     -10.424583      -283.6673
  19   2.0000     -10.414952      -283.4052
  20   2.0000     -10.410913      -283.2953
  21   2.0000     -10.410212      -283.2763
  22   2.0000     -10.396505      -282.9033
  23   2.0000     -10.392688      -282.7994
  24   2.0000     -10.390161      -282.7307
  25   2.0000     -10.388397      -282.6827
  26   2.0000     -10.385872      -282.6139
  27   2.0000     -10.384663      -282.5810
  28   2.0000     -10.381768      -282.5023
  29   2.0000     -10.378910      -282.4245
  30   2.0000     -10.369049      -282.1562
  31   2.0000     -10.368973      -282.1541
  32   2.0000     -10.367662      -282.1184
  33   2.0000     -10.363586      -282.0075
  34   2.0000     -10.363480      -282.0046
  35   2.0000     -10.361997      -281.9643
  36   2.0000     -10.361581      -281.9530
  37   2.0000     -10.361229      -281.9434
  38   2.0000     -10.360558      -281.9251
  39   2.0000     -10.359041      -281.8838
  40   2.0000     -10.357078      -281.8304
  41   2.0000     -10.357016      -281.8287
  42   2.0000     -10.356839      -281.8239
  43   2.0000     -10.348697      -281.6024
  44   2.0000     -10.347750      -281.5766
  45   2.0000     -10.347656      -281.5740
  46   2.0000     -10.345432      -281.5135
  47   2.0000     -10.342616      -281.4369
  48   2.0000     -10.342194      -281.4254
  49   2.0000     -10.340929      -281.3910
  50   2.0000     -10.340563      -281.3810
  51   2.0000     -10.339652      -281.3562
  52   2.0000     -10.338178      -281.3161
  53   2.0000     -10.334401      -281.2133
  54   2.0000     -10.333061      -281.1769
  55   2.0000     -10.330572      -281.1092
  56   2.0000     -10.326646      -281.0023
  57   2.0000     -10.316790      -280.7341
  58   2.0000     -10.313170      -280.6356
  59   2.0000     -10.311333      -280.5856
  60   2.0000     -10.302212      -280.3374
  61   2.0000     -10.299653      -280.2678
  62   2.0000     -10.288446      -279.9629
  63   2.0000      -8.112273      -220.7462
  64   2.0000      -8.111825      -220.7340
  65   2.0000      -8.093123      -220.2251
  66   2.0000      -6.072001      -165.2275
  67   2.0000      -6.071523      -165.2146
  68   2.0000      -6.067428      -165.1031
  69   2.0000      -6.067300      -165.0996
  70   2.0000      -6.064581      -165.0256
  71   2.0000      -6.063720      -165.0022
  72   2.0000      -6.052958      -164.7094
  73   2.0000      -6.048198      -164.5798
  74   2.0000      -6.045134      -164.4965
  75   2.0000      -1.368571       -37.2407
  76   2.0000      -1.355479       -36.8845
  77   2.0000      -1.353468       -36.8297
  78   2.0000      -1.340456       -36.4757
  79   2.0000      -1.217763       -33.1370
  80   2.0000      -1.212125       -32.9836
  81   2.0000      -1.208807       -32.8933
  82   2.0000      -1.190199       -32.3870
  83   2.0000      -1.185771       -32.2665
  84   2.0000      -1.166282       -31.7361
  85   2.0000      -1.067608       -29.0511
  86   2.0000      -1.049468       -28.5575
  87   2.0000      -1.049224       -28.5508
  88   2.0000      -1.048783       -28.5388
  89   2.0000      -1.038995       -28.2725
  90   2.0000      -1.036247       -28.1977
  91   2.0000      -1.031378       -28.0652
  92   2.0000      -1.020917       -27.7806
  93   2.0000      -1.018260       -27.7083
  94   2.0000      -1.002731       -27.2857
  95   2.0000      -0.985955       -26.8292
  96   2.0000      -0.956889       -26.0383
  97   2.0000      -0.946569       -25.7574
  98   2.0000      -0.937510       -25.5109
  99   2.0000      -0.928703       -25.2713
 100   2.0000      -0.919328       -25.0162
 101   2.0000      -0.914132       -24.8748
 102   2.0000      -0.913354       -24.8536
 103   2.0000      -0.906111       -24.6565
 104   2.0000      -0.904424       -24.6106
 105   2.0000      -0.903610       -24.5885
 106   2.0000      -0.891706       -24.2646
 107   2.0000      -0.875768       -23.8309
 108   2.0000      -0.868869       -23.6431
 109   2.0000      -0.867684       -23.6109
 110   2.0000      -0.854194       -23.2438
 111   2.0000      -0.847604       -23.0645
 112   2.0000      -0.825661       -22.4674
 113   2.0000      -0.818826       -22.2814
 114   2.0000      -0.808810       -22.0088
 115   2.0000      -0.801136       -21.8000
 116   2.0000      -0.787323       -21.4241
 117   2.0000      -0.784755       -21.3543
 118   2.0000      -0.775691       -21.1076
 119   2.0000      -0.766505       -20.8577
 120   2.0000      -0.755999       -20.5718
 121   2.0000      -0.752738       -20.4830
 122   2.0000      -0.747985       -20.3537
 123   2.0000      -0.737598       -20.0711
 124   2.0000      -0.734426       -19.9847
 125   2.0000      -0.727811       -19.8047
 126   2.0000      -0.713594       -19.4179
 127   2.0000      -0.709339       -19.3021
 128   2.0000      -0.698347       -19.0030
 129   2.0000      -0.696148       -18.9431
 130   2.0000      -0.686691       -18.6858
 131   2.0000      -0.681778       -18.5521
 132   2.0000      -0.680785       -18.5251
 133   2.0000      -0.677018       -18.4226
 134   2.0000      -0.673765       -18.3341
 135   2.0000      -0.666832       -18.1454
 136   2.0000      -0.663337       -18.0503
 137   2.0000      -0.659882       -17.9563
 138   2.0000      -0.650974       -17.7139
 139   2.0000      -0.643686       -17.5156
 140   2.0000      -0.640316       -17.4239
 141   2.0000      -0.638140       -17.3647
 142   2.0000      -0.629125       -17.1194
 143   2.0000      -0.628207       -17.0944
 144   2.0000      -0.623862       -16.9762
 145   2.0000      -0.620441       -16.8831
 146   2.0000      -0.618885       -16.8407
 147   2.0000      -0.615936       -16.7605
 148   2.0000      -0.614554       -16.7229
 149   2.0000      -0.606008       -16.4903
 150   2.0000      -0.599973       -16.3261
 151   2.0000      -0.594806       -16.1855
 152   2.0000      -0.592938       -16.1347
 153   2.0000      -0.592133       -16.1128
 154   2.0000      -0.589200       -16.0329
 155   2.0000      -0.587836       -15.9958
 156   2.0000      -0.584495       -15.9049
 157   2.0000      -0.583568       -15.8797
 158   2.0000      -0.578273       -15.7356
 159   2.0000      -0.577482       -15.7141
 160   2.0000      -0.576604       -15.6902
 161   2.0000      -0.575206       -15.6521
 162   2.0000      -0.571116       -15.5409
 163   2.0000      -0.565448       -15.3866
 164   2.0000      -0.564562       -15.3625
 165   2.0000      -0.560064       -15.2401
 166   2.0000      -0.558879       -15.2079
 167   2.0000      -0.555710       -15.1216
 168   2.0000      -0.550564       -14.9816
 169   2.0000      -0.549556       -14.9542
 170   2.0000      -0.545158       -14.8345
 171   2.0000      -0.544586       -14.8189
 172   2.0000      -0.540623       -14.7111
 173   2.0000      -0.535645       -14.5756
 174   2.0000      -0.534884       -14.5549
 175   2.0000      -0.531596       -14.4655
 176   2.0000      -0.527908       -14.3651
 177   2.0000      -0.525612       -14.3026
 178   2.0000      -0.523503       -14.2452
 179   2.0000      -0.520810       -14.1720
 180   2.0000      -0.520262       -14.1570
 181   2.0000      -0.515438       -14.0258
 182   2.0000      -0.513921       -13.9845
 183   2.0000      -0.513371       -13.9695
 184   2.0000      -0.505651       -13.7595
 185   2.0000      -0.503579       -13.7031
 186   2.0000      -0.502077       -13.6622
 187   2.0000      -0.498506       -13.5650
 188   2.0000      -0.497991       -13.5510
 189   2.0000      -0.496309       -13.5053
 190   2.0000      -0.494233       -13.4488
 191   2.0000      -0.492532       -13.4025
 192   2.0000      -0.487092       -13.2544
 193   2.0000      -0.485791       -13.2190
 194   2.0000      -0.484338       -13.1795
 195   2.0000      -0.481848       -13.1117
 196   2.0000      -0.480465       -13.0741
 197   2.0000      -0.479582       -13.0501
 198   2.0000      -0.474245       -12.9049
 199   2.0000      -0.473530       -12.8854
 200   2.0000      -0.472658       -12.8617
 201   2.0000      -0.469177       -12.7669
 202   2.0000      -0.467669       -12.7259
 203   2.0000      -0.462068       -12.5735
 204   2.0000      -0.456094       -12.4109
 205   2.0000      -0.453715       -12.3462
 206   2.0000      -0.452998       -12.3267
 207   2.0000      -0.452223       -12.3056
 208   2.0000      -0.450890       -12.2693
 209   2.0000      -0.449444       -12.2300
 210   2.0000      -0.447813       -12.1856
 211   2.0000      -0.446092       -12.1388
 212   2.0000      -0.442781       -12.0487
 213   2.0000      -0.442519       -12.0416
 214   2.0000      -0.438880       -11.9425
 215   2.0000      -0.432257       -11.7623
 216   2.0000      -0.422254       -11.4901
 217   2.0000      -0.414642       -11.2830
 218   2.0000      -0.401956       -10.9378
 219   2.0000      -0.391242       -10.6462
 220   2.0000      -0.388378       -10.5683
 221   2.0000      -0.376816       -10.2537
 222   2.0000      -0.376311       -10.2399
 223   2.0000      -0.364813        -9.9271
 224   2.0000      -0.361576        -9.8390
 225   2.0000      -0.356912        -9.7121
 226   2.0000      -0.349502        -9.5104
 227   2.0000      -0.344621        -9.3776
 228   2.0000      -0.339008        -9.2249
 229   2.0000      -0.337130        -9.1738
 230   2.0000      -0.307866        -8.3775
 231   2.0000      -0.269105        -7.3227
 232   0.0000      -0.085669        -2.3312
 233   0.0000      -0.056093        -1.5264
 234   0.0000      -0.045274        -1.2320
 235   0.0000      -0.030060        -0.8180
 236   0.0000      -0.002533        -0.0689

MULLIKEN ATOMIC CHARGES
-----------------------
   0 C :    0.018205
   1 C :   -0.149064
   2 C :    0.292287
   3 C :    0.027029
   4 C :   -0.056508
   5 C :    0.233929
   6 O :   -0.201836
   7 C :   -0.377943
   8 C :   -0.129757
   9 N :    0.110311
  10 C :   -0.125433
  11 N :    0.095047
  12 C :   -0.086545
  13 C :    0.244144
  14 C :    0.242210
  15 C :   -0.093360
  16 F :   -0.178623
  17 F :   -0.182947
  18 C :   -0.066261
  19 S :    0.222068
  20 C :   -0.121451
  21 C :    0.269885
  22 C :   -0.102446
  23 C :   -0.104606
  24 C :    0.107391
  25 C :    0.194832
  26 C :   -0.123331
  27 S :    0.186155
  28 O :   -0.376071
  29 O :   -0.353945
  30 C :    0.135256
  31 C :   -0.064659
  32 C :    0.116828
  33 C :   -0.073084
  34 C :   -0.018766
  35 S :    0.218957
  36 C :   -0.173178
  37 C :    0.299132
  38 C :   -0.141790
  39 O :   -0.314406
  40 C :    0.128699
  41 C :   -0.083366
  42 C :    0.010416
  43 C :   -0.156787
  44 C :    0.290102
  45 C :    0.027431
  46 C :   -0.055671
  47 C :    0.227025
  48 O :   -0.208300
  49 C :   -0.386164
  50 C :   -0.134918
  51 N :    0.099698
  52 C :   -0.134141
  53 N :    0.097124
  54 C :   -0.093438
  55 C :    0.243704
  56 C :    0.240326
  57 C :   -0.102476
  58 F :   -0.183213
  59 F :   -0.187825
  60 O :   -0.352112
  61 C :    0.128850
  62 C :   -0.078752
  63 H :    0.024318
  64 H :    0.045886
  65 H :    0.039279
  66 H :    0.029654
  67 H :    0.062181
  68 H :    0.031449
  69 H :    0.046721
  70 H :    0.053684
  71 H :    0.045899
  72 H :    0.054952
  73 H :    0.049828
  74 H :    0.040480
  75 H :    0.037352
  76 H :    0.067677
  77 H :    0.007769
  78 H :    0.035837
  79 H :    0.061723
  80 H :    0.042881
  81 H :    0.047187
  82 H :    0.067353
  83 H :    0.045097
  84 H :    0.044424
  85 H :    0.035654
  86 H :    0.052168
  87 H :    0.041405
  88 H :    0.055223
  89 H :    0.053737
  90 H :    0.046316
Sum of atomic charges:    0.0000000

LOEWDIN ATOMIC CHARGES
----------------------
   0 C :    0.065028
   1 C :   -0.127182
   2 C :    0.080728
   3 C :   -0.018846
   4 C :   -0.050030
   5 C :    0.093211
   6 O :   -0.169735
   7 C :   -0.147694
   8 C :   -0.014994
   9 N :   -0.051472
  10 C :   -0.014062
  11 N :   -0.057277
  12 C :   -0.016902
  13 C :    0.078081
  14 C :    0.074921
  15 C :   -0.007015
  16 F :   -0.046270
  17 F :   -0.048869
  18 C :   -0.193911
  19 S :    0.546378
  20 C :   -0.194728
  21 C :    0.009831
  22 C :   -0.056128
  23 C :   -0.197115
  24 C :   -0.013306
  25 C :    0.010643
  26 C :   -0.229535
  27 S :    0.468325
  28 O :   -0.129268
  29 O :   -0.100233
  30 C :    0.076972
  31 C :   -0.075195
  32 C :    0.085822
  33 C :   -0.076238
  34 C :   -0.140743
  35 S :    0.525959
  36 C :   -0.242039
  37 C :    0.072553
  38 C :   -0.129194
  39 O :   -0.072730
  40 C :    0.085741
  41 C :   -0.073674
  42 C :    0.073433
  43 C :   -0.146548
  44 C :    0.081350
  45 C :   -0.017750
  46 C :   -0.049320
  47 C :    0.092295
  48 O :   -0.179629
  49 C :   -0.158464
  50 C :   -0.014734
  51 N :   -0.064270
  52 C :   -0.016470
  53 N :   -0.062782
  54 C :   -0.019291
  55 C :    0.074667
  56 C :    0.071089
  57 C :   -0.011469
  58 F :   -0.050729
  59 F :   -0.053713
  60 O :   -0.104356
  61 C :    0.084599
  62 C :   -0.073392
  63 H :    0.051283
  64 H :    0.054354
  65 H :    0.054785
  66 H :    0.039678
  67 H :    0.028398
  68 H :    0.011567
  69 H :    0.030122
  70 H :    0.031861
  71 H :    0.036872
  72 H :    0.015656
  73 H :    0.027469
  74 H :    0.033528
  75 H :    0.027877
  76 H :    0.030453
  77 H :    0.025171
  78 H :    0.015615
  79 H :    0.035662
  80 H :    0.027744
  81 H :    0.036519
  82 H :    0.040382
  83 H :    0.050823
  84 H :    0.053439
  85 H :    0.052555
  86 H :    0.031330
  87 H :    0.018134
  88 H :    0.035582
  89 H :    0.039141
  90 H :    0.029680

  Mayer bond orders larger than 0.100000
B(  0-C ,  1-C ) :   1.5048 B(  0-C , 18-C ) :   1.3055 B(  0-C , 63-H ) :   0.9388
B(  1-C ,  2-C ) :   1.1032 B(  1-C ,  5-C ) :   0.9887 B(  2-C ,  3-C ) :   1.0136
B(  2-C ,  7-C ) :   1.6343 B(  3-C ,  4-C ) :   1.3432 B(  3-C , 12-C ) :   1.3374
B(  4-C ,  5-C ) :   0.9701 B(  4-C , 15-C ) :   1.3438 B(  5-C ,  6-O ) :   2.1146
B(  7-C ,  8-C ) :   1.1294 B(  7-C , 10-C ) :   1.1353 B(  8-C ,  9-N ) :   2.9723
B( 10-C , 11-N ) :   2.9517 B( 12-C , 13-C ) :   1.3481 B( 12-C , 64-H ) :   0.9882
B( 13-C , 14-C ) :   1.2958 B( 13-C , 16-F ) :   1.1157 B( 14-C , 15-C ) :   1.3275
B( 14-C , 17-F ) :   1.1010 B( 15-C , 65-H ) :   1.0154 B( 18-C , 19-S ) :   1.0741
B( 18-C , 22-C ) :   1.3170 B( 19-S , 20-C ) :   1.1376 B( 20-C , 21-C ) :   1.3352
B( 20-C , 23-C ) :   1.2283 B( 21-C , 22-C ) :   1.2994 B( 21-C , 60-O ) :   1.1357
B( 22-C , 66-H ) :   1.0090 B( 23-C , 24-C ) :   1.4390 B( 23-C , 26-C ) :   0.1058
B( 23-C , 27-S ) :   1.1335 B( 24-C , 25-C ) :   1.2577 B( 24-C , 28-O ) :   1.1223
B( 25-C , 26-C ) :   1.4268 B( 25-C , 29-O ) :   1.1467 B( 26-C , 27-S ) :   1.0747
B( 26-C , 34-C ) :   1.2258 B( 28-O , 30-C ) :   0.8732 B( 29-O , 32-C ) :   0.8757
B( 30-C , 31-C ) :   1.1045 B( 30-C , 67-H ) :   0.9600 B( 30-C , 68-H ) :   0.9498
B( 31-C , 69-H ) :   0.9675 B( 31-C , 70-H ) :   0.9644 B( 31-C , 71-H ) :   0.9637
B( 32-C , 33-C ) :   1.0950 B( 32-C , 72-H ) :   0.9493 B( 32-C , 73-H ) :   0.9614
B( 33-C , 74-H ) :   0.9655 B( 33-C , 75-H ) :   0.9685 B( 33-C , 76-H ) :   0.9633
B( 34-C , 35-S ) :   1.1672 B( 34-C , 38-C ) :   1.3631 B( 35-S , 36-C ) :   1.0258
B( 36-C , 37-C ) :   1.2903 B( 36-C , 42-C ) :   1.3806 B( 37-C , 38-C ) :   1.3013
B( 37-C , 39-O ) :   1.1913 B( 38-C , 77-H ) :   0.9989 B( 39-O , 40-C ) :   0.9063
B( 40-C , 41-C ) :   1.0974 B( 40-C , 78-H ) :   0.9554 B( 40-C , 79-H ) :   0.9602
B( 41-C , 80-H ) :   0.9692 B( 41-C , 81-H ) :   0.9664 B( 41-C , 82-H ) :   0.9662
B( 42-C , 43-C ) :   1.4452 B( 42-C , 83-H ) :   0.9319 B( 43-C , 44-C ) :   1.1267
B( 43-C , 47-C ) :   1.0053 B( 44-C , 45-C ) :   1.0070 B( 44-C , 49-C ) :   1.6215
B( 45-C , 46-C ) :   1.3483 B( 45-C , 54-C ) :   1.3396 B( 46-C , 47-C ) :   0.9631
B( 46-C , 57-C ) :   1.3464 B( 47-C , 48-O ) :   2.1017 B( 49-C , 50-C ) :   1.1320
B( 49-C , 52-C ) :   1.1346 B( 50-C , 51-N ) :   2.9719 B( 52-C , 53-N ) :   2.9670
B( 54-C , 55-C ) :   1.3424 B( 54-C , 84-H ) :   0.9898 B( 55-C , 56-C ) :   1.3015
B( 55-C , 58-F ) :   1.1102 B( 56-C , 57-C ) :   1.3240 B( 56-C , 59-F ) :   1.0962
B( 57-C , 85-H ) :   1.0158 B( 60-O , 61-C ) :   0.9098 B( 61-C , 62-C ) :   1.0952
B( 61-C , 86-H ) :   0.9618 B( 61-C , 87-H ) :   0.9566 B( 62-C , 88-H ) :   0.9668
B( 62-C , 89-H ) :   0.9665 B( 62-C , 90-H ) :   0.9696

-----------------------------------------------------------------------------
         ABSORPTION SPECTRUM VIA TRANSITION ELECTRIC DIPOLE MOMENTS
-----------------------------------------------------------------------------
State   Energy  Wavelength   fosc         T2         TX        TY        TZ
        (cm-1)    (nm)                  (au**2)     (au)      (au)      (au)
-----------------------------------------------------------------------------
   0   18039.1    554.4   2.931192986  53.49406   1.42626   5.99444  -3.94037
   1   26352.8    379.5   0.012075532   0.15085  -0.00573  -0.20098  -0.33231
   2   27673.4    361.4   0.019376363   0.23051  -0.00925  -0.10504   0.46839
   3   28608.4    349.5   0.059770775   0.68781  -0.05368   0.63583   0.52977
   4   30667.6    326.1   0.036938820   0.39653   0.21749  -0.04670  -0.58911
   5   32322.1    309.4   0.012466516   0.12698  -0.05996  -0.29143   0.19609
   6   32447.9    308.2   0.037870374   0.38423  -0.14337   0.44190   0.41036
   7   33277.4    300.5   0.005523434   0.05464  -0.20599  -0.05283   0.09705
   8   34377.2    290.9   0.055685947   0.53327  -0.39286   0.41217   0.45722
   9   34688.8    288.3   0.096176003   0.91275   0.51922  -0.46817  -0.65113
  10   35352.6    282.9   0.059525500   0.55432  -0.51091  -0.04712   0.53950
  11   36544.4    273.6   0.173899775   1.56659  -0.07919   0.96618   0.79172
  12   37090.9    269.6   0.282344430   2.50604   0.52862  -0.98446  -1.12136
  13   37321.3    267.9   0.105792477   0.93320   0.45921   0.29491  -0.79709
  14   37954.9    263.5   0.070416621   0.61078  -0.30372   0.42604   0.58053
  15   38177.5    261.9   1.039100529   8.96037  -0.69734   1.88958   2.21440
  16   38563.4    259.3   0.014991732   0.12798   0.07850  -0.19596  -0.28883
  17   39265.5    254.7   0.266980360   2.23843   0.09360   1.44966   0.35800

Dispersion correction           -0.054501696
FINAL SINGLE POINT ENERGY     -4030.622970746739

DIPOLE MOMENT
-------------
                                X             Y             Z
Electronic contribution:    -10.64133      32.93287      34.71041
Nuclear contribution   :     10.97920     -31.54465     -36.39767
                        -----------------------------------------
Total Dipole Moment    :      0.33786       1.38822      -1.68726
                        -----------------------------------------
Magnitude (a.u.)       :      2.21092
Magnitude (Debye)      :      5.61970

Rotational constants in cm-1:     0.002295     0.000382     0.000333
Rotational constants in MHz :    68.795980    11.464106     9.970341

                             ****ORCA TERMINATED NORMALLY****
TOTAL RUN TIME: 0 days 0 hours 8 minutes 18 seconds 741 msec
