                         Program Version 4.2.0 -  RELEASE  -
|  1> # ORCA input file
|  2> # SCF done       -183.679223603332          0.000668394156
|  3> ! wb97x-d3 def2-SVP def2/J RIJCOSX Grid4 TightSCF
|  4> %maxcore 5000
|  5> %tddft
|  6>     Mode sTDA
|  7>     Ethresh 5.0
|  8>     maxcore 5000
|  9> end
| 10>
| 11> %pal
| 12>   nprocs 6
| 13>   end
| 14> * xyz 0 1
| 15>    C       -9.39144       -12.50516       -24.24672
| 16>    O       -8.68974       -12.13378       -23.32214
| 17>    C       -9.01500       -13.49486       -25.27782
| 18>    C       -7.82017       -14.17065       -25.42275
| 19>    C       -7.70654       -15.05295       -26.48514
| 20>    F       -6.56481       -15.72800       -26.66653
| 21>    C       -8.76999       -15.24285       -27.36738
| 22>    F       -8.63264       -16.09993       -28.38493
| 23>    C       -9.97101       -14.56397       -27.21960
| 24>    C      -10.09231       -13.67838       -26.16059
| 25>    C      -11.19951       -12.81835       -25.73667
| 26>    C      -12.42257       -12.75173       -26.35372
| 27>    C      -13.50366       -11.93609       -25.95896
| 28>    N      -14.42652       -11.30044       -25.70438
| 29>    C      -12.77689       -13.50997       -27.49010
| 30>    N      -13.12847       -14.09598       -28.41214
| 31>    C      -10.75396       -12.08502       -24.56982
| 32>    C      -11.49032       -11.13119       -23.90389
| 33>    C      -11.18047       -10.33926       -22.79770
| 34>    S       -9.67590       -10.42533       -21.87746
| 35>    C      -10.21556        -9.15100       -20.85163
| 36>    C      -11.49159        -8.68363       -21.21945
| 37>    C      -12.05172        -9.35188       -22.29764
| 38>    C      -13.38273        -8.99138       -22.87051
| 39>    C      -13.22640        -8.01653       -24.04125
| 40>    S      -12.05934        -7.34301       -20.24111
| 41>    C      -10.57928        -7.41224       -19.35181
| 42>    C       -9.71023        -8.42737       -19.76851
| 43>    N       -8.56576        -8.41174       -19.01277
| 44>    C       -7.39253        -9.03419       -19.59197
| 45>    C       -8.67357        -7.36211       -18.10831
| 46>    C       -9.92508        -6.70994       -18.33356
| 47>    C      -10.28483        -5.51158       -17.67857
| 48>    N      -11.38185        -4.78484       -17.82547
| 49>    S      -11.24149        -3.45893       -16.90765
| 50>    N       -9.77959        -3.76377       -16.28713
| 51>    C       -9.34816        -4.91561       -16.77540
| 52>    C       -8.16811        -5.62524       -16.46239
| 53>    C       -7.85032        -6.88178       -17.05172
| 54>    N       -6.74826        -7.39757       -16.39407
| 55>    C       -6.20153        -8.72872       -16.48918
| 56>    C       -4.89326        -8.76218       -17.28303
| 57>    C       -6.34418        -6.49170       -15.43167
| 58>    C       -7.19680        -5.37063       -15.48869
| 59>    S       -6.81812        -4.14219       -14.36928
| 60>    C       -5.48876        -5.13791       -13.76927
| 61>    C       -5.38026        -6.38663       -14.42701
| 62>    C       -4.50542        -3.57473       -12.03608
| 63>    C       -3.47887        -3.30885       -11.04939
| 64>    C       -2.47123        -4.14468       -10.63719
| 65>    C       -1.50561        -3.80245        -9.66668
| 66>    N       -0.68763        -3.59266        -8.88922
| 67>    C       -2.23620        -5.45509       -11.10149
| 68>    N       -1.96772        -6.52526       -11.42461
| 69>    C       -3.69299        -1.94977       -10.54793
| 70>    C       -2.99678        -1.19361        -9.61812
| 71>    C       -3.44586         0.09269        -9.35676
| 72>    F       -2.78453         0.83919        -8.46456
| 73>    C       -4.56332         0.62462        -9.99976
| 74>    F       -4.95958         1.87178        -9.71751
| 75>    C       -5.26574        -0.12549       -10.92954
| 76>    C       -4.81682        -1.40437       -11.18956
| 77>    C       -5.37284        -2.39737       -12.13562
| 78>    O       -6.35040        -2.24090       -12.84021
| 79>    C       -6.64034        -8.04739       -20.48244
| 80>    C       -4.41635        -7.44104       -13.97298
| 81>    C       -4.96519        -8.18123       -12.74809
| 82>    C       -4.60559        -4.74003       -12.76107
| 83>    H       -7.00066       -14.02023       -24.73836
| 84>    H      -10.76025       -14.74729       -27.92979
| 85>    H      -12.47495       -10.93514       -24.30516
| 86>    H      -13.91932        -9.87937       -23.20749
| 87>    H      -13.97235        -8.51235       -22.08646
| 88>    H      -12.63896        -8.46327       -24.84001
| 89>    H      -14.20451        -7.75853       -24.43643
| 90>    H      -12.73078        -7.10634       -23.71196
| 91>    H       -7.74980        -9.87108       -20.19708
| 92>    H       -6.73637        -9.43703       -18.82863
| 93>    H       -6.02194        -9.09243       -15.47351
| 94>    H       -6.95859        -9.38110       -16.92781
| 95>    H       -4.12680        -8.17664       -16.78239
| 96>    H       -4.54082        -9.78646       -17.37416
| 97>    H       -5.01879        -8.34127       -18.27567
| 98>    H       -2.12763        -1.55489        -9.09382
| 99>    H       -6.12982         0.28070       -11.43063
|100>    H       -7.28137        -7.70975       -21.29329
|101>    H       -6.32345        -7.17590       -19.91218
|102>    H       -5.76628        -8.52847       -20.91227
|103>    H       -4.23201        -8.16198       -14.76466
|104>    H       -3.45231        -6.99942       -13.71629
|105>    H       -5.91517        -8.65995       -12.97860
|106>    H       -4.25708        -8.94110       -12.42936
|107>    H       -5.12420        -7.49331       -11.92203
|108>    H       -3.85430        -5.47944       -12.52494
|109> *
|110>
|111>                          ****END OF INPUT****

CARTESIAN COORDINATES (ANGSTROEM)
---------------------------------
  C     -9.391440  -12.505160  -24.246720
  O     -8.689740  -12.133780  -23.322140
  C     -9.015000  -13.494860  -25.277820
  C     -7.820170  -14.170650  -25.422750
  C     -7.706540  -15.052950  -26.485140
  F     -6.564810  -15.728000  -26.666530
  C     -8.769990  -15.242850  -27.367380
  F     -8.632640  -16.099930  -28.384930
  C     -9.971010  -14.563970  -27.219600
  C    -10.092310  -13.678380  -26.160590
  C    -11.199510  -12.818350  -25.736670
  C    -12.422570  -12.751730  -26.353720
  C    -13.503660  -11.936090  -25.958960
  N    -14.426520  -11.300440  -25.704380
  C    -12.776890  -13.509970  -27.490100
  N    -13.128470  -14.095980  -28.412140
  C    -10.753960  -12.085020  -24.569820
  C    -11.490320  -11.131190  -23.903890
  C    -11.180470  -10.339260  -22.797700
  S     -9.675900  -10.425330  -21.877460
  C    -10.215560   -9.151000  -20.851630
  C    -11.491590   -8.683630  -21.219450
  C    -12.051720   -9.351880  -22.297640
  C    -13.382730   -8.991380  -22.870510
  C    -13.226400   -8.016530  -24.041250
  S    -12.059340   -7.343010  -20.241110
  C    -10.579280   -7.412240  -19.351810
  C     -9.710230   -8.427370  -19.768510
  N     -8.565760   -8.411740  -19.012770
  C     -7.392530   -9.034190  -19.591970
  C     -8.673570   -7.362110  -18.108310
  C     -9.925080   -6.709940  -18.333560
  C    -10.284830   -5.511580  -17.678570
  N    -11.381850   -4.784840  -17.825470
  S    -11.241490   -3.458930  -16.907650
  N     -9.779590   -3.763770  -16.287130
  C     -9.348160   -4.915610  -16.775400
  C     -8.168110   -5.625240  -16.462390
  C     -7.850320   -6.881780  -17.051720
  N     -6.748260   -7.397570  -16.394070
  C     -6.201530   -8.728720  -16.489180
  C     -4.893260   -8.762180  -17.283030
  C     -6.344180   -6.491700  -15.431670
  C     -7.196800   -5.370630  -15.488690
  S     -6.818120   -4.142190  -14.369280
  C     -5.488760   -5.137910  -13.769270
  C     -5.380260   -6.386630  -14.427010
  C     -4.505420   -3.574730  -12.036080
  C     -3.478870   -3.308850  -11.049390
  C     -2.471230   -4.144680  -10.637190
  C     -1.505610   -3.802450   -9.666680
  N     -0.687630   -3.592660   -8.889220
  C     -2.236200   -5.455090  -11.101490
  N     -1.967720   -6.525260  -11.424610
  C     -3.692990   -1.949770  -10.547930
  C     -2.996780   -1.193610   -9.618120
  C     -3.445860    0.092690   -9.356760
  F     -2.784530    0.839190   -8.464560
  C     -4.563320    0.624620   -9.999760
  F     -4.959580    1.871780   -9.717510
  C     -5.265740   -0.125490  -10.929540
  C     -4.816820   -1.404370  -11.189560
  C     -5.372840   -2.397370  -12.135620
  O     -6.350400   -2.240900  -12.840210
  C     -6.640340   -8.047390  -20.482440
  C     -4.416350   -7.441040  -13.972980
  C     -4.965190   -8.181230  -12.748090
  C     -4.605590   -4.740030  -12.761070
  H     -7.000660  -14.020230  -24.738360
  H    -10.760250  -14.747290  -27.929790
  H    -12.474950  -10.935140  -24.305160
  H    -13.919320   -9.879370  -23.207490
  H    -13.972350   -8.512350  -22.086460
  H    -12.638960   -8.463270  -24.840010
  H    -14.204510   -7.758530  -24.436430
  H    -12.730780   -7.106340  -23.711960
  H     -7.749800   -9.871080  -20.197080
  H     -6.736370   -9.437030  -18.828630
  H     -6.021940   -9.092430  -15.473510
  H     -6.958590   -9.381100  -16.927810
  H     -4.126800   -8.176640  -16.782390
  H     -4.540820   -9.786460  -17.374160
  H     -5.018790   -8.341270  -18.275670
  H     -2.127630   -1.554890   -9.093820
  H     -6.129820    0.280700  -11.430630
  H     -7.281370   -7.709750  -21.293290
  H     -6.323450   -7.175900  -19.912180
  H     -5.766280   -8.528470  -20.912270
  H     -4.232010   -8.161980  -14.764660
  H     -3.452310   -6.999420  -13.716290
  H     -5.915170   -8.659950  -12.978600
  H     -4.257080   -8.941100  -12.429360
  H     -5.124200   -7.493310  -11.922030
  H     -3.854300   -5.479440  -12.524940

 Total Charge           Charge          ....    0
 Multiplicity           Mult            ....    1
 Number of Electrons    NEL             ....  498
 Basis Dimension        Dim             .... 1098

ORBITAL ENERGIES
----------------

  NO   OCC          E(Eh)            E(eV)
   0   2.0000     -89.034249     -2422.7451
   1   2.0000     -88.998862     -2421.7821
   2   2.0000     -88.995143     -2421.6810
   3   2.0000     -88.983920     -2421.3756
   4   2.0000     -24.838147      -675.8803
   5   2.0000     -24.836078      -675.8240
   6   2.0000     -24.832233      -675.7194
   7   2.0000     -24.830577      -675.6744
   8   2.0000     -19.265891      -524.2516
   9   2.0000     -19.256715      -524.0019
  10   2.0000     -14.530046      -395.3827
  11   2.0000     -14.527111      -395.3028
  12   2.0000     -14.473636      -393.8477
  13   2.0000     -14.471119      -393.7792
  14   2.0000     -14.460583      -393.4925
  15   2.0000     -14.457535      -393.4095
  16   2.0000     -14.453692      -393.3050
  17   2.0000     -14.448948      -393.1759
  18   2.0000     -10.423999      -283.6514
  19   2.0000     -10.423420      -283.6357
  20   2.0000     -10.418066      -283.4900
  21   2.0000     -10.417293      -283.4689
  22   2.0000     -10.413231      -283.3584
  23   2.0000     -10.404748      -283.1276
  24   2.0000     -10.386820      -282.6397
  25   2.0000     -10.386021      -282.6180
  26   2.0000     -10.383779      -282.5570
  27   2.0000     -10.382264      -282.5158
  28   2.0000     -10.381885      -282.5055
  29   2.0000     -10.376499      -282.3589
  30   2.0000     -10.376219      -282.3513
  31   2.0000     -10.372963      -282.2627
  32   2.0000     -10.365829      -282.0685
  33   2.0000     -10.363350      -282.0011
  34   2.0000     -10.361974      -281.9636
  35   2.0000     -10.360529      -281.9243
  36   2.0000     -10.359573      -281.8983
  37   2.0000     -10.358489      -281.8688
  38   2.0000     -10.357039      -281.8294
  39   2.0000     -10.356703      -281.8202
  40   2.0000     -10.356240      -281.8076
  41   2.0000     -10.355632      -281.7911
  42   2.0000     -10.355179      -281.7787
  43   2.0000     -10.354985      -281.7735
  44   2.0000     -10.351797      -281.6867
  45   2.0000     -10.350861      -281.6612
  46   2.0000     -10.349690      -281.6294
  47   2.0000     -10.349610      -281.6272
  48   2.0000     -10.349451      -281.6229
  49   2.0000     -10.349188      -281.6157
  50   2.0000     -10.348672      -281.6017
  51   2.0000     -10.347506      -281.5700
  52   2.0000     -10.346450      -281.5412
  53   2.0000     -10.341184      -281.3979
  54   2.0000     -10.340736      -281.3857
  55   2.0000     -10.340584      -281.3816
  56   2.0000     -10.339132      -281.3421
  57   2.0000     -10.336319      -281.2655
  58   2.0000     -10.335214      -281.2355
  59   2.0000     -10.334538      -281.2171
  60   2.0000     -10.328996      -281.0663
  61   2.0000     -10.327364      -281.0219
  62   2.0000     -10.324684      -280.9489
  63   2.0000     -10.324414      -280.9416
  64   2.0000     -10.321909      -280.8734
  65   2.0000     -10.318912      -280.7919
  66   2.0000     -10.304376      -280.3963
  67   2.0000     -10.300942      -280.3029
  68   2.0000      -8.145355      -221.6464
  69   2.0000      -8.109895      -220.6815
  70   2.0000      -8.107920      -220.6277
  71   2.0000      -8.095606      -220.2926
  72   2.0000      -6.107113      -166.1830
  73   2.0000      -6.099261      -165.9693
  74   2.0000      -6.097109      -165.9108
  75   2.0000      -6.070019      -165.1736
  76   2.0000      -6.068021      -165.1192
  77   2.0000      -6.065281      -165.0447
  78   2.0000      -6.064003      -165.0099
  79   2.0000      -6.061566      -164.9436
  80   2.0000      -6.058934      -164.8720
  81   2.0000      -6.055497      -164.7784
  82   2.0000      -6.051013      -164.6564
  83   2.0000      -6.047263      -164.5544
  84   2.0000      -1.367578       -37.2137
  85   2.0000      -1.361762       -37.0554
  86   2.0000      -1.352489       -36.8031
  87   2.0000      -1.346692       -36.6454
  88   2.0000      -1.183755       -32.2116
  89   2.0000      -1.175675       -31.9917
  90   2.0000      -1.161035       -31.5934
  91   2.0000      -1.153403       -31.3857
  92   2.0000      -1.145236       -31.1635
  93   2.0000      -1.066405       -29.0184
  94   2.0000      -1.061562       -28.8866
  95   2.0000      -1.057295       -28.7705
  96   2.0000      -1.048154       -28.5217
  97   2.0000      -1.043441       -28.3935
  98   2.0000      -1.037650       -28.2359
  99   2.0000      -1.033584       -28.1253
 100   2.0000      -1.028916       -27.9982
 101   2.0000      -1.015535       -27.6341
 102   2.0000      -1.008230       -27.4353
 103   2.0000      -1.003001       -27.2930
 104   2.0000      -0.995429       -27.0870
 105   2.0000      -0.992084       -26.9960
 106   2.0000      -0.963197       -26.2099
 107   2.0000      -0.948836       -25.8191
 108   2.0000      -0.943374       -25.6705
 109   2.0000      -0.941413       -25.6171
 110   2.0000      -0.936894       -25.4942
 111   2.0000      -0.928363       -25.2621
 112   2.0000      -0.926270       -25.2051
 113   2.0000      -0.922104       -25.0917
 114   2.0000      -0.917606       -24.9693
 115   2.0000      -0.911762       -24.8103
 116   2.0000      -0.898094       -24.4384
 117   2.0000      -0.888767       -24.1846
 118   2.0000      -0.872275       -23.7358
 119   2.0000      -0.871299       -23.7092
 120   2.0000      -0.859280       -23.3822
 121   2.0000      -0.851145       -23.1608
 122   2.0000      -0.843625       -22.9562
 123   2.0000      -0.835761       -22.7422
 124   2.0000      -0.817930       -22.2570
 125   2.0000      -0.812063       -22.0973
 126   2.0000      -0.807148       -21.9636
 127   2.0000      -0.798114       -21.7178
 128   2.0000      -0.794763       -21.6266
 129   2.0000      -0.785938       -21.3865
 130   2.0000      -0.769344       -20.9349
 131   2.0000      -0.763357       -20.7720
 132   2.0000      -0.757903       -20.6236
 133   2.0000      -0.752657       -20.4808
 134   2.0000      -0.750801       -20.4303
 135   2.0000      -0.746111       -20.3027
 136   2.0000      -0.741850       -20.1868
 137   2.0000      -0.738432       -20.0938
 138   2.0000      -0.728648       -19.8275
 139   2.0000      -0.715824       -19.4786
 140   2.0000      -0.708264       -19.2729
 141   2.0000      -0.699096       -19.0234
 142   2.0000      -0.696865       -18.9627
 143   2.0000      -0.692090       -18.8327
 144   2.0000      -0.690002       -18.7759
 145   2.0000      -0.684565       -18.6280
 146   2.0000      -0.678588       -18.4653
 147   2.0000      -0.676595       -18.4111
 148   2.0000      -0.668918       -18.2022
 149   2.0000      -0.661817       -18.0090
 150   2.0000      -0.655282       -17.8311
 151   2.0000      -0.650566       -17.7028
 152   2.0000      -0.646435       -17.5904
 153   2.0000      -0.637152       -17.3378
 154   2.0000      -0.632985       -17.2244
 155   2.0000      -0.631959       -17.1965
 156   2.0000      -0.628252       -17.0956
 157   2.0000      -0.628076       -17.0908
 158   2.0000      -0.624355       -16.9896
 159   2.0000      -0.622312       -16.9340
 160   2.0000      -0.620585       -16.8870
 161   2.0000      -0.612835       -16.6761
 162   2.0000      -0.606782       -16.5114
 163   2.0000      -0.605418       -16.4743
 164   2.0000      -0.597216       -16.2511
 165   2.0000      -0.595971       -16.2172
 166   2.0000      -0.593655       -16.1542
 167   2.0000      -0.588688       -16.0190
 168   2.0000      -0.588038       -16.0013
 169   2.0000      -0.586963       -15.9721
 170   2.0000      -0.584826       -15.9139
 171   2.0000      -0.583039       -15.8653
 172   2.0000      -0.581207       -15.8154
 173   2.0000      -0.577391       -15.7116
 174   2.0000      -0.575538       -15.6612
 175   2.0000      -0.573542       -15.6069
 176   2.0000      -0.570580       -15.5263
 177   2.0000      -0.569115       -15.4864
 178   2.0000      -0.567609       -15.4454
 179   2.0000      -0.566562       -15.4169
 180   2.0000      -0.559604       -15.2276
 181   2.0000      -0.556814       -15.1517
 182   2.0000      -0.551343       -15.0028
 183   2.0000      -0.546957       -14.8835
 184   2.0000      -0.545209       -14.8359
 185   2.0000      -0.544489       -14.8163
 186   2.0000      -0.539884       -14.6910
 187   2.0000      -0.535323       -14.5669
 188   2.0000      -0.535007       -14.5583
 189   2.0000      -0.534776       -14.5520
 190   2.0000      -0.529145       -14.3988
 191   2.0000      -0.528248       -14.3744
 192   2.0000      -0.526540       -14.3279
 193   2.0000      -0.524111       -14.2618
 194   2.0000      -0.522707       -14.2236
 195   2.0000      -0.521462       -14.1897
 196   2.0000      -0.519014       -14.1231
 197   2.0000      -0.517133       -14.0719
 198   2.0000      -0.514856       -14.0099
 199   2.0000      -0.508238       -13.8299
 200   2.0000      -0.504840       -13.7374
 201   2.0000      -0.500586       -13.6216
 202   2.0000      -0.498462       -13.5639
 203   2.0000      -0.495086       -13.4720
 204   2.0000      -0.494468       -13.4552
 205   2.0000      -0.493419       -13.4266
 206   2.0000      -0.492217       -13.3939
 207   2.0000      -0.490854       -13.3568
 208   2.0000      -0.490052       -13.3350
 209   2.0000      -0.489220       -13.3124
 210   2.0000      -0.488288       -13.2870
 211   2.0000      -0.482899       -13.1403
 212   2.0000      -0.482272       -13.1233
 213   2.0000      -0.479166       -13.0388
 214   2.0000      -0.478721       -13.0267
 215   2.0000      -0.472400       -12.8547
 216   2.0000      -0.470952       -12.8153
 217   2.0000      -0.469723       -12.7818
 218   2.0000      -0.467504       -12.7214
 219   2.0000      -0.466778       -12.7017
 220   2.0000      -0.465734       -12.6733
 221   2.0000      -0.462208       -12.5773
 222   2.0000      -0.461674       -12.5628
 223   2.0000      -0.460139       -12.5210
 224   2.0000      -0.450851       -12.2683
 225   2.0000      -0.449428       -12.2295
 226   2.0000      -0.446723       -12.1559
 227   2.0000      -0.445102       -12.1119
 228   2.0000      -0.441797       -12.0219
 229   2.0000      -0.439472       -11.9586
 230   2.0000      -0.439061       -11.9475
 231   2.0000      -0.434674       -11.8281
 232   2.0000      -0.426670       -11.6103
 233   2.0000      -0.408411       -11.1134
 234   2.0000      -0.401995       -10.9388
 235   2.0000      -0.399813       -10.8795
 236   2.0000      -0.387090       -10.5333
 237   2.0000      -0.383304       -10.4302
 238   2.0000      -0.380208       -10.3460
 239   2.0000      -0.376599       -10.2478
 240   2.0000      -0.368095       -10.0164
 241   2.0000      -0.359229        -9.7751
 242   2.0000      -0.357708        -9.7337
 243   2.0000      -0.350731        -9.5439
 244   2.0000      -0.343670        -9.3517
 245   2.0000      -0.328325        -8.9342
 246   2.0000      -0.314066        -8.5462
 247   2.0000      -0.308911        -8.4059
 248   2.0000      -0.274889        -7.4801
 249   0.0000      -0.083016        -2.2590
 250   0.0000      -0.065888        -1.7929
 251   0.0000      -0.046452        -1.2640
 252   0.0000      -0.038614        -1.0507
 253   0.0000      -0.016435        -0.4472

MULLIKEN ATOMIC CHARGES
-----------------------
   0 C :    0.233174
   1 O :   -0.205560
   2 C :   -0.054497
   3 C :   -0.095366
   4 C :    0.242832
   5 F :   -0.183341
   6 C :    0.244384
   7 F :   -0.179095
   8 C :   -0.085695
   9 C :    0.022777
  10 C :    0.289609
  11 C :   -0.379845
  12 C :   -0.117377
  13 N :    0.095302
  14 C :   -0.133654
  15 N :    0.109789
  16 C :   -0.152817
  17 C :    0.006766
  18 C :   -0.098464
  19 S :    0.181544
  20 C :   -0.007997
  21 C :   -0.089642
  22 C :   -0.089755
  23 C :    0.000014
  24 C :   -0.009753
  25 S :    0.208346
  26 C :   -0.052385
  27 C :    0.025334
  28 N :   -0.247077
  29 C :    0.061739
  30 C :    0.094602
  31 C :   -0.110842
  32 C :    0.014895
  33 N :   -0.296748
  34 S :    0.486044
  35 N :   -0.291541
  36 C :    0.025121
  37 C :   -0.114566
  38 C :    0.119702
  39 N :   -0.259914
  40 C :    0.042839
  41 C :   -0.034509
  42 C :    0.119159
  43 C :   -0.029585
  44 S :    0.232497
  45 C :   -0.133667
  46 C :   -0.088097
  47 C :   -0.151280
  48 C :    0.288076
  49 C :   -0.388608
  50 C :   -0.135098
  51 N :    0.105237
  52 C :   -0.110539
  53 N :    0.088347
  54 C :    0.021088
  55 C :   -0.087338
  56 C :    0.245308
  57 F :   -0.181031
  58 C :    0.242544
  59 F :   -0.183826
  60 C :   -0.093826
  61 C :   -0.053826
  62 C :    0.226208
  63 O :   -0.186418
  64 C :   -0.046348
  65 C :    0.008331
  66 C :   -0.006469
  67 C :    0.010009
  68 H :    0.039562
  69 H :    0.046459
  70 H :   -0.007424
  71 H :    0.063596
  72 H :    0.042381
  73 H :    0.031777
  74 H :    0.056565
  75 H :    0.036124
  76 H :    0.062198
  77 H :    0.026970
  78 H :    0.054973
  79 H :    0.055424
  80 H :    0.055167
  81 H :    0.055335
  82 H :    0.032377
  83 H :    0.044359
  84 H :    0.042334
  85 H :    0.055376
  86 H :    0.056028
  87 H :    0.055801
  88 H :    0.012040
  89 H :    0.056032
  90 H :    0.029362
  91 H :    0.057454
  92 H :    0.036371
  93 H :   -0.021865
Sum of atomic charges:   -0.0000000

LOEWDIN ATOMIC CHARGES
----------------------
   0 C :    0.092762
   1 O :   -0.172019
   2 C :   -0.049730
   3 C :   -0.007697
   4 C :    0.074354
   5 F :   -0.049576
   6 C :    0.077825
   7 F :   -0.046637
   8 C :   -0.016940
   9 C :   -0.018833
  10 C :    0.082278
  11 C :   -0.151691
  12 C :   -0.012120
  13 N :   -0.058272
  14 C :   -0.015504
  15 N :   -0.053077
  16 C :   -0.133170
  17 C :    0.067963
  18 C :   -0.195124
  19 S :    0.471572
  20 C :   -0.192753
  21 C :   -0.197152
  22 C :   -0.006874
  23 C :   -0.034597
  24 C :   -0.043897
  25 S :    0.420153
  26 C :   -0.167255
  27 C :   -0.042162
  28 N :    0.032905
  29 C :    0.040801
  30 C :    0.007943
  31 C :   -0.070289
  32 C :   -0.057053
  33 N :   -0.285965
  34 S :    0.604206
  35 N :   -0.282700
  36 C :   -0.050985
  37 C :   -0.091035
  38 C :    0.029080
  39 N :    0.028413
  40 C :    0.037422
  41 C :   -0.067738
  42 C :   -0.029489
  43 C :   -0.167485
  44 S :    0.501412
  45 C :   -0.193167
  46 C :   -0.015284
  47 C :   -0.131834
  48 C :    0.084248
  49 C :   -0.157517
  50 C :   -0.015507
  51 N :   -0.056922
  52 C :   -0.010463
  53 N :   -0.065725
  54 C :   -0.020806
  55 C :   -0.017861
  56 C :    0.076415
  57 F :   -0.048438
  58 C :    0.074670
  59 F :   -0.049679
  60 C :   -0.006544
  61 C :   -0.048235
  62 C :    0.089107
  63 O :   -0.157177
  64 C :   -0.062545
  65 C :   -0.038288
  66 C :   -0.045157
  67 C :    0.062837
  68 H :    0.054586
  69 H :    0.054464
  70 H :    0.047771
  71 H :    0.040439
  72 H :    0.035499
  73 H :    0.025488
  74 H :    0.036032
  75 H :    0.027981
  76 H :    0.029418
  77 H :    0.024163
  78 H :    0.034617
  79 H :    0.030866
  80 H :    0.032802
  81 H :    0.037837
  82 H :    0.029132
  83 H :    0.053659
  84 H :    0.055925
  85 H :    0.036469
  86 H :    0.030170
  87 H :    0.037149
  88 H :    0.027069
  89 H :    0.039586
  90 H :    0.022888
  91 H :    0.035962
  92 H :    0.028366
  93 H :    0.044266

  Mayer bond orders larger than 0.100000
B(  0-C ,  1-O ) :   2.1201 B(  0-C ,  2-C ) :   0.9689 B(  0-C , 16-C ) :   0.9830
B(  2-C ,  3-C ) :   1.3439 B(  2-C ,  9-C ) :   1.3458 B(  3-C ,  4-C ) :   1.3271
B(  3-C , 68-H ) :   1.0152 B(  4-C ,  5-F ) :   1.1012 B(  4-C ,  6-C ) :   1.2954
B(  6-C ,  7-F ) :   1.1152 B(  6-C ,  8-C ) :   1.3478 B(  8-C ,  9-C ) :   1.3378
B(  8-C , 69-H ) :   0.9879 B(  9-C , 10-C ) :   1.0128 B( 10-C , 11-C ) :   1.6278
B( 10-C , 16-C ) :   1.1091 B( 11-C , 12-C ) :   1.1403 B( 11-C , 14-C ) :   1.1294
B( 12-C , 13-N ) :   2.9520 B( 14-C , 15-N ) :   2.9735 B( 16-C , 17-C ) :   1.5148
B( 17-C , 18-C ) :   1.3258 B( 17-C , 70-H ) :   0.9256 B( 18-C , 19-S ) :   1.0362
B( 18-C , 22-C ) :   1.3834 B( 19-S , 20-C ) :   1.0398 B( 20-C , 21-C ) :   1.4060
B( 20-C , 27-C ) :   1.3143 B( 21-C , 22-C ) :   1.4539 B( 21-C , 25-S ) :   1.0203
B( 22-C , 23-C ) :   1.0558 B( 23-C , 24-C ) :   1.0878 B( 23-C , 71-H ) :   0.9128
B( 23-C , 72-H ) :   0.9322 B( 24-C , 73-H ) :   0.9726 B( 24-C , 74-H ) :   0.9709
B( 24-C , 75-H ) :   0.9700 B( 25-S , 26-C ) :   1.0225 B( 26-C , 27-C ) :   1.4119
B( 26-C , 31-C ) :   1.3895 B( 27-C , 28-N ) :   1.1431 B( 28-N , 29-C ) :   0.9389
B( 28-N , 30-C ) :   1.1536 B( 29-C , 64-C ) :   1.0958 B( 29-C , 76-H ) :   0.9426
B( 29-C , 77-H ) :   0.9479 B( 30-C , 31-C ) :   1.3940 B( 30-C , 38-C ) :   1.1340
B( 31-C , 32-C ) :   1.1328 B( 32-C , 33-N ) :   1.6161 B( 32-C , 36-C ) :   1.1477
B( 33-N , 34-S ) :   1.2321 B( 33-N , 35-N ) :   0.1310 B( 34-S , 35-N ) :   1.2313
B( 35-N , 36-C ) :   1.6139 B( 36-C , 37-C ) :   1.1408 B( 37-C , 38-C ) :   1.3757
B( 37-C , 43-C ) :   1.3602 B( 38-C , 39-N ) :   1.1782 B( 39-N , 40-C ) :   0.9309
B( 39-N , 42-C ) :   1.1029 B( 40-C , 41-C ) :   1.0856 B( 40-C , 78-H ) :   0.9466
B( 40-C , 79-H ) :   0.9543 B( 41-C , 80-H ) :   0.9563 B( 41-C , 81-H ) :   0.9678
B( 41-C , 82-H ) :   0.9612 B( 42-C , 43-C ) :   1.3244 B( 42-C , 46-C ) :   1.3652
B( 43-C , 44-S ) :   1.0527 B( 44-S , 45-C ) :   1.0490 B( 45-C , 46-C ) :   1.3631
B( 45-C , 67-C ) :   1.3297 B( 46-C , 65-C ) :   1.0584 B( 47-C , 48-C ) :   1.1164
B( 47-C , 62-C ) :   0.9675 B( 47-C , 67-C ) :   1.5264 B( 48-C , 49-C ) :   1.6156
B( 48-C , 54-C ) :   1.0116 B( 49-C , 50-C ) :   1.1315 B( 49-C , 52-C ) :   1.1443
B( 50-C , 51-N ) :   2.9724 B( 52-C , 53-N ) :   2.9451 B( 54-C , 55-C ) :   1.3343
B( 54-C , 61-C ) :   1.3483 B( 55-C , 56-C ) :   1.3483 B( 55-C , 83-H ) :   0.9896
B( 56-C , 57-F ) :   1.1125 B( 56-C , 58-C ) :   1.2956 B( 58-C , 59-F ) :   1.1005
B( 58-C , 60-C ) :   1.3246 B( 60-C , 61-C ) :   1.3433 B( 60-C , 84-H ) :   1.0169
B( 61-C , 62-C ) :   0.9641 B( 62-C , 63-O ) :   2.1527 B( 64-C , 85-H ) :   0.9620
B( 64-C , 86-H ) :   0.9619 B( 64-C , 87-H ) :   0.9691 B( 65-C , 66-C ) :   1.0996
B( 65-C , 88-H ) :   0.9297 B( 65-C , 89-H ) :   0.8989 B( 66-C , 90-H ) :   0.9652
B( 66-C , 91-H ) :   0.9705 B( 66-C , 92-H ) :   0.9687 B( 67-C , 93-H ) :   0.9230

-----------------------------------------------------------------------------
         ABSORPTION SPECTRUM VIA TRANSITION ELECTRIC DIPOLE MOMENTS
-----------------------------------------------------------------------------
State   Energy  Wavelength   fosc         T2         TX        TY        TZ
        (cm-1)    (nm)                  (au**2)     (au)      (au)      (au)
-----------------------------------------------------------------------------
   0   19558.6    511.3   3.407614747  57.35735   3.00074   3.84361   5.79479
   1   26173.0    382.1   0.236654361   2.97671  -1.41093   0.96433   0.23672
   2   28171.6    355.0   0.160123723   1.87120  -1.11623   0.72441  -0.31698
   3   29029.2    344.5   0.170206476   1.93026   0.89738  -1.04921  -0.15535
   4   29323.0    341.0   0.067311738   0.75572   0.43536  -0.61292  -0.43647
   5   29579.0    338.1   0.057580940   0.64087  -0.70683  -0.14862  -0.34521
   6   30721.3    325.5   0.000142731   0.00153   0.00896   0.01591  -0.03459
   7   31172.7    320.8   0.000540610   0.00571   0.02568  -0.00973   0.07039
   8   32628.4    306.5   0.034289682   0.34597  -0.38974   0.14725  -0.41521
   9   32894.3    304.0   0.068434604   0.68491   0.60866   0.08030   0.55497
  10   35231.7    283.8   0.192047723   1.79453   0.43126  -0.98069  -0.80423
  11   35334.4    283.0   0.268059522   2.49752   1.10109  -1.13335   0.02516
  12   35530.3    281.5   0.008779845   0.08135   0.14948  -0.23803   0.04845
  13   36278.5    275.6   0.006267367   0.05687  -0.05487  -0.10360  -0.20768
  14   36819.8    271.6   0.144041486   1.28790  -1.12824  -0.11544   0.04053
  15   36957.4    270.6   0.097416399   0.86777   0.42817  -0.73921  -0.37149
  16   37585.6    266.1   0.131051226   1.14788   0.07268  -1.00474  -0.36481
  17   38933.4    256.8   0.723794245   6.12024  -1.98286   1.42947  -0.38097
  18   39435.5    253.6   0.133587826   1.11520   0.37083   0.85885   0.48996
  19   39751.7    251.6   0.238742747   1.97720   1.25730  -0.04692   0.62786

Dispersion correction           -0.061417070
FINAL SINGLE POINT ENERGY     -4498.018540498992

DIPOLE MOMENT
-------------
                                X             Y             Z
Electronic contribution:     -4.11851      20.55336       4.23047
Nuclear contribution   :      4.58303     -21.26694      -4.73127
                        -----------------------------------------
Total Dipole Moment    :      0.46452      -0.71358      -0.50080
                        -----------------------------------------
Magnitude (a.u.)       :      0.98781
Magnitude (Debye)      :      2.51083

Rotational constants in cm-1:     0.002433     0.000288     0.000261
Rotational constants in MHz :    72.933580     8.628971     7.832235

                             ****ORCA TERMINATED NORMALLY****
TOTAL RUN TIME: 0 days 0 hours 19 minutes 3 seconds 162 msec
