                         Program Version 4.2.0 -  RELEASE  -
|  1> # ORCA input file
|  2> # SCF done       -221.285393588311          0.000484411139
|  3> ! wb97x-d3 def2-SVP def2/J RIJCOSX Grid4 TightSCF
|  4> %maxcore 5000
|  5> %tddft
|  6>     Mode sTDA
|  7>     Ethresh 5.0
|  8>     maxcore 5000
|  9> end
| 10>
| 11> %pal
| 12>   nprocs 6
| 13>   end
| 14> * xyz 0 1
| 15>    C        5.23573        -7.21232        -3.50810
| 16>    O        4.22851        -7.46296        -2.87581
| 17>    C        5.36000        -7.31675        -4.97822
| 18>    C        4.38930        -7.66834        -5.89304
| 19>    C        4.73133        -7.68908        -7.23913
| 20>    C        6.03003        -7.35936        -7.63974
| 21>    C        7.00548        -7.00942        -6.71202
| 22>    C        6.66747        -6.98905        -5.36885
| 23>    C        7.44656        -6.67569        -4.17191
| 24>    C        8.79319        -6.41462        -4.16870
| 25>    C        9.60331        -6.18507        -3.03616
| 26>    N       10.34936        -6.00465        -2.18113
| 27>    C        9.59096        -6.37095        -5.33219
| 28>    N       10.30199        -6.31507        -6.23162
| 29>    C        6.55295        -6.75200        -3.02941
| 30>   Cl        6.43999        -7.38264        -9.30794
| 31>    C        6.92357        -6.37348        -1.75900
| 32>   Cl        3.55275        -8.11920        -8.41226
| 33>    C       -0.48688         1.79809        17.33562
| 34>    O       -0.93036         0.70862        17.03122
| 35>    C       -1.12689         2.74005        18.28001
| 36>    C       -2.32388         2.59460        18.94991
| 37>    C       -2.73977         3.62439        19.78422
| 38>    C       -1.95412         4.77203        19.92997
| 39>    C       -0.74572         4.91081        19.25539
| 40>    C       -0.32787         3.88480        18.42387
| 41>    C        0.86694         3.72618        17.59615
| 42>    C        1.91746         4.60801        17.57158
| 43>    C        3.12210         4.46165        16.85113
| 44>    N        4.14060         4.42842        16.32035
| 45>    C        1.95638         5.80930        18.31132
| 46>    N        2.05712         6.80292        18.87740
| 47>    C        0.74322         2.47090        16.87657
| 48>   Cl       -2.48232         6.04271        20.95865
| 49>    C        1.61849         2.08188        15.88832
| 50>   Cl       -4.22519         3.48551        20.63549
| 51>    C        1.67735         0.93553        15.08754
| 52>    S        2.93614         0.92928        13.83953
| 53>    C        2.42493        -0.60927        13.31507
| 54>    C        1.34649        -1.10701        14.06789
| 55>    C        0.93304        -0.24655        15.06011
| 56>    C        2.74852        -1.54029        12.30777
| 57>    C        1.88441        -2.63631        12.40744
| 58>    C        0.94303        -2.47860        13.57682
| 59>    S        3.82348        -1.65476        10.97346
| 60>    C        3.11084        -3.18976        10.53392
| 61>    C        2.08655        -3.56092        11.39442
| 62>    C        3.58221        -3.87858         9.36849
| 63>    C        3.22501        -5.17986         9.02131
| 64>    C        3.64207        -5.79321         7.80188
| 65>    C        4.38932        -5.09946         6.85027
| 66>    C        4.88478        -3.83278         7.24817
| 67>    C        4.48327        -3.22920         8.48306
| 68>    N        5.70653        -3.04964         6.55467
| 69>    S        5.96480        -1.69455         7.38265
| 70>    N        5.03321        -2.03192         8.65201
| 71>    C        4.58007        -5.52391         5.48708
| 72>    S        6.04386        -5.13104         4.62558
| 73>    C        5.39278        -5.83891         3.20059
| 74>    C        4.09654        -6.32192         3.38248
| 75>    C        3.63931        -6.14481         4.68262
| 76>    C        5.77005        -6.03922         1.85597
| 77>    C        4.70874        -6.65855         1.17029
| 78>    C        3.55544        -6.92537         2.10806
| 79>    S        7.10376        -5.70931         0.84918
| 80>    C        6.23463        -6.38291        -0.54076
| 81>    C        4.96666        -6.83727        -0.17120
| 82>    O        2.41929        -5.92637         9.84389
| 83>    O        3.23522        -7.08108         7.66964
| 84>    C       -0.53135        -2.52692        13.14762
| 85>    C        1.24496        -3.49529        14.70090
| 86>    C        3.11603        -6.81739        10.71071
| 87>    C        4.07183        -8.03208         7.02716
| 88>    C        2.26441        -6.23622         1.63935
| 89>    C        3.34496        -8.43754         2.34681
| 90>    C       -0.87837        -1.45808        12.11796
| 91>    C        1.10753        -4.95650        14.29514
| 92>    C        2.93336        -9.23134         1.11454
| 93>    C        2.40745        -4.72141         1.54824
| 94>    C        3.93985        -9.35704         7.76605
| 95>    C        2.10736        -7.78174        11.30864
| 96>    H        3.39187        -7.91878        -5.56806
| 97>    H        7.99359        -6.76042        -7.06161
| 98>    H        7.92858        -5.97877        -1.66803
| 99>    H       -2.91927         1.70397        18.82552
|100>    H       -0.17072         5.81134        19.39331
|101>    H        2.40229         2.79358        15.65729
|102>    H        0.12392        -0.42164        15.74454
|103>    H        1.50748        -4.45098        11.23763
|104>    H        2.65206        -6.38882         5.03287
|105>    H        4.28964        -7.25590        -0.89243
|106>    H       -0.74239        -3.50938        12.72421
|107>    H       -1.15361        -2.39286        14.03418
|108>    H        2.26659        -3.32090        15.04800
|109>    H        0.57110        -3.28123        15.53256
|110>    H        3.88094        -7.36613        10.14973
|111>    H        3.61922        -6.23649        11.49909
|112>    H        3.75925        -8.16207         5.98383
|113>    H        5.11196        -7.68554         7.03164
|114>    H        1.99894        -6.62642         0.65687
|115>    H        1.46290        -6.48577         2.33762
|116>    H        4.27937        -8.84882         2.73836
|117>    H        2.58203        -8.54947         3.12088
|118>    H       -0.26902        -1.57146        11.22395
|119>    H       -1.92419        -1.54268        11.83313
|120>    H       -0.71437        -0.46253        12.52354
|121>    H        1.80290        -5.20071        13.49683
|122>    H        1.33356        -5.59119        15.14906
|123>    H        0.09726        -5.18285        13.96551
|124>    H        3.68401        -9.15448         0.33366
|125>    H        2.82698       -10.28045         1.38152
|126>    H        1.98201        -8.88600         0.72062
|127>    H        3.19625        -4.45180         0.84974
|128>    H        1.47679        -4.28122         1.19888
|129>    H        2.64618        -4.29294         2.51916
|130>    H        2.89374        -9.64613         7.81314
|131>    H        4.49849       -10.12458         7.23829
|132>    H        4.32290        -9.27621         8.77998
|133>    H        1.61750        -8.33616        10.51334
|134>    H        2.61113        -8.47621        11.97497
|135>    H        1.35160        -7.23777        11.86841
|136> *
|137>
|138>                          ****END OF INPUT****

CARTESIAN COORDINATES (ANGSTROEM)
---------------------------------
  C      5.235730   -7.212320   -3.508100
  O      4.228510   -7.462960   -2.875810
  C      5.360000   -7.316750   -4.978220
  C      4.389300   -7.668340   -5.893040
  C      4.731330   -7.689080   -7.239130
  C      6.030030   -7.359360   -7.639740
  C      7.005480   -7.009420   -6.712020
  C      6.667470   -6.989050   -5.368850
  C      7.446560   -6.675690   -4.171910
  C      8.793190   -6.414620   -4.168700
  C      9.603310   -6.185070   -3.036160
  N     10.349360   -6.004650   -2.181130
  C      9.590960   -6.370950   -5.332190
  N     10.301990   -6.315070   -6.231620
  C      6.552950   -6.752000   -3.029410
  Cl     6.439990   -7.382640   -9.307940
  C      6.923570   -6.373480   -1.759000
  Cl     3.552750   -8.119200   -8.412260
  C     -0.486880    1.798090   17.335620
  O     -0.930360    0.708620   17.031220
  C     -1.126890    2.740050   18.280010
  C     -2.323880    2.594600   18.949910
  C     -2.739770    3.624390   19.784220
  C     -1.954120    4.772030   19.929970
  C     -0.745720    4.910810   19.255390
  C     -0.327870    3.884800   18.423870
  C      0.866940    3.726180   17.596150
  C      1.917460    4.608010   17.571580
  C      3.122100    4.461650   16.851130
  N      4.140600    4.428420   16.320350
  C      1.956380    5.809300   18.311320
  N      2.057120    6.802920   18.877400
  C      0.743220    2.470900   16.876570
  Cl    -2.482320    6.042710   20.958650
  C      1.618490    2.081880   15.888320
  Cl    -4.225190    3.485510   20.635490
  C      1.677350    0.935530   15.087540
  S      2.936140    0.929280   13.839530
  C      2.424930   -0.609270   13.315070
  C      1.346490   -1.107010   14.067890
  C      0.933040   -0.246550   15.060110
  C      2.748520   -1.540290   12.307770
  C      1.884410   -2.636310   12.407440
  C      0.943030   -2.478600   13.576820
  S      3.823480   -1.654760   10.973460
  C      3.110840   -3.189760   10.533920
  C      2.086550   -3.560920   11.394420
  C      3.582210   -3.878580    9.368490
  C      3.225010   -5.179860    9.021310
  C      3.642070   -5.793210    7.801880
  C      4.389320   -5.099460    6.850270
  C      4.884780   -3.832780    7.248170
  C      4.483270   -3.229200    8.483060
  N      5.706530   -3.049640    6.554670
  S      5.964800   -1.694550    7.382650
  N      5.033210   -2.031920    8.652010
  C      4.580070   -5.523910    5.487080
  S      6.043860   -5.131040    4.625580
  C      5.392780   -5.838910    3.200590
  C      4.096540   -6.321920    3.382480
  C      3.639310   -6.144810    4.682620
  C      5.770050   -6.039220    1.855970
  C      4.708740   -6.658550    1.170290
  C      3.555440   -6.925370    2.108060
  S      7.103760   -5.709310    0.849180
  C      6.234630   -6.382910   -0.540760
  C      4.966660   -6.837270   -0.171200
  O      2.419290   -5.926370    9.843890
  O      3.235220   -7.081080    7.669640
  C     -0.531350   -2.526920   13.147620
  C      1.244960   -3.495290   14.700900
  C      3.116030   -6.817390   10.710710
  C      4.071830   -8.032080    7.027160
  C      2.264410   -6.236220    1.639350
  C      3.344960   -8.437540    2.346810
  C     -0.878370   -1.458080   12.117960
  C      1.107530   -4.956500   14.295140
  C      2.933360   -9.231340    1.114540
  C      2.407450   -4.721410    1.548240
  C      3.939850   -9.357040    7.766050
  C      2.107360   -7.781740   11.308640
  H      3.391870   -7.918780   -5.568060
  H      7.993590   -6.760420   -7.061610
  H      7.928580   -5.978770   -1.668030
  H     -2.919270    1.703970   18.825520
  H     -0.170720    5.811340   19.393310
  H      2.402290    2.793580   15.657290
  H      0.123920   -0.421640   15.744540
  H      1.507480   -4.450980   11.237630
  H      2.652060   -6.388820    5.032870
  H      4.289640   -7.255900   -0.892430
  H     -0.742390   -3.509380   12.724210
  H     -1.153610   -2.392860   14.034180
  H      2.266590   -3.320900   15.048000
  H      0.571100   -3.281230   15.532560
  H      3.880940   -7.366130   10.149730
  H      3.619220   -6.236490   11.499090
  H      3.759250   -8.162070    5.983830
  H      5.111960   -7.685540    7.031640
  H      1.998940   -6.626420    0.656870
  H      1.462900   -6.485770    2.337620
  H      4.279370   -8.848820    2.738360
  H      2.582030   -8.549470    3.120880
  H     -0.269020   -1.571460   11.223950
  H     -1.924190   -1.542680   11.833130
  H     -0.714370   -0.462530   12.523540
  H      1.802900   -5.200710   13.496830
  H      1.333560   -5.591190   15.149060
  H      0.097260   -5.182850   13.965510
  H      3.684010   -9.154480    0.333660
  H      2.826980  -10.280450    1.381520
  H      1.982010   -8.886000    0.720620
  H      3.196250   -4.451800    0.849740
  H      1.476790   -4.281220    1.198880
  H      2.646180   -4.292940    2.519160
  H      2.893740   -9.646130    7.813140
  H      4.498490  -10.124580    7.238290
  H      4.322900   -9.276210    8.779980
  H      1.617500   -8.336160   10.513340
  H      2.611130   -8.476210   11.974970
  H      1.351600   -7.237770   11.868410

 Total Charge           Charge          ....    0
 Multiplicity           Mult            ....    1
 Number of Electrons    NEL             ....  634
 Basis Dimension        Dim             .... 1370

ORBITAL ENERGIES
----------------

  NO   OCC          E(Eh)            E(eV)
   0   2.0000    -101.624228     -2765.3358
   1   2.0000    -101.622776     -2765.2963
   2   2.0000    -101.621905     -2765.2726
   3   2.0000    -101.620557     -2765.2359
   4   2.0000     -89.055298     -2423.3179
   5   2.0000     -89.002226     -2421.8737
   6   2.0000     -88.999041     -2421.7870
   7   2.0000     -88.998764     -2421.7795
   8   2.0000     -88.992824     -2421.6179
   9   2.0000     -19.306340      -525.3522
  10   2.0000     -19.288295      -524.8612
  11   2.0000     -19.257374      -524.0198
  12   2.0000     -19.255138      -523.9589
  13   2.0000     -14.488051      -394.2399
  14   2.0000     -14.485556      -394.1720
  15   2.0000     -14.450560      -393.2197
  16   2.0000     -14.448645      -393.1676
  17   2.0000     -14.446689      -393.1144
  18   2.0000     -14.445119      -393.0717
  19   2.0000     -10.407033      -283.1898
  20   2.0000     -10.404777      -283.1284
  21   2.0000     -10.402415      -283.0641
  22   2.0000     -10.392656      -282.7985
  23   2.0000     -10.389653      -282.7168
  24   2.0000     -10.389125      -282.7025
  25   2.0000     -10.388205      -282.6774
  26   2.0000     -10.387547      -282.6595
  27   2.0000     -10.378953      -282.4257
  28   2.0000     -10.376965      -282.3716
  29   2.0000     -10.374848      -282.3140
  30   2.0000     -10.372947      -282.2622
  31   2.0000     -10.372449      -282.2487
  32   2.0000     -10.370937      -282.2076
  33   2.0000     -10.369755      -282.1754
  34   2.0000     -10.367764      -282.1212
  35   2.0000     -10.365368      -282.0560
  36   2.0000     -10.360714      -281.9294
  37   2.0000     -10.360457      -281.9224
  38   2.0000     -10.360246      -281.9166
  39   2.0000     -10.357828      -281.8508
  40   2.0000     -10.355497      -281.7874
  41   2.0000     -10.351777      -281.6862
  42   2.0000     -10.351504      -281.6788
  43   2.0000     -10.350600      -281.6541
  44   2.0000     -10.349854      -281.6338
  45   2.0000     -10.349265      -281.6178
  46   2.0000     -10.348269      -281.5907
  47   2.0000     -10.347553      -281.5712
  48   2.0000     -10.346694      -281.5479
  49   2.0000     -10.346692      -281.5478
  50   2.0000     -10.345906      -281.5264
  51   2.0000     -10.345547      -281.5167
  52   2.0000     -10.341479      -281.4059
  53   2.0000     -10.340922      -281.3908
  54   2.0000     -10.340905      -281.3903
  55   2.0000     -10.339893      -281.3628
  56   2.0000     -10.339320      -281.3472
  57   2.0000     -10.337039      -281.2851
  58   2.0000     -10.332902      -281.1726
  59   2.0000     -10.332747      -281.1683
  60   2.0000     -10.331195      -281.1261
  61   2.0000     -10.330291      -281.1015
  62   2.0000     -10.328127      -281.0426
  63   2.0000     -10.326461      -280.9973
  64   2.0000     -10.325378      -280.9678
  65   2.0000     -10.324873      -280.9541
  66   2.0000     -10.323469      -280.9159
  67   2.0000     -10.321653      -280.8665
  68   2.0000     -10.319629      -280.8114
  69   2.0000     -10.318025      -280.7677
  70   2.0000     -10.317098      -280.7425
  71   2.0000     -10.313723      -280.6507
  72   2.0000     -10.310155      -280.5536
  73   2.0000     -10.309096      -280.5248
  74   2.0000     -10.308999      -280.5221
  75   2.0000     -10.306663      -280.4586
  76   2.0000     -10.304052      -280.3875
  77   2.0000     -10.295837      -280.1640
  78   2.0000     -10.294466      -280.1267
  79   2.0000     -10.289915      -280.0028
  80   2.0000     -10.286723      -279.9160
  81   2.0000      -9.600969      -261.2556
  82   2.0000      -9.599605      -261.2185
  83   2.0000      -9.598661      -261.1929
  84   2.0000      -9.597300      -261.1558
  85   2.0000      -8.165796      -222.2026
  86   2.0000      -8.115803      -220.8422
  87   2.0000      -8.112475      -220.7517
  88   2.0000      -8.111485      -220.7247
  89   2.0000      -8.104944      -220.5468
  90   2.0000      -7.360980      -200.3025
  91   2.0000      -7.359605      -200.2650
  92   2.0000      -7.358708      -200.2406
  93   2.0000      -7.357337      -200.2033
  94   2.0000      -7.351008      -200.0311
  95   2.0000      -7.350366      -200.0136
  96   2.0000      -7.349640      -199.9939
  97   2.0000      -7.348993      -199.9763
  98   2.0000      -7.348678      -199.9677
  99   2.0000      -7.348027      -199.9500
 100   2.0000      -7.347321      -199.9308
 101   2.0000      -7.346677      -199.9132
 102   2.0000      -6.127395      -166.7349
 103   2.0000      -6.119532      -166.5209
 104   2.0000      -6.117964      -166.4783
 105   2.0000      -6.075167      -165.3137
 106   2.0000      -6.071824      -165.2227
 107   2.0000      -6.071130      -165.2039
 108   2.0000      -6.071086      -165.2026
 109   2.0000      -6.068239      -165.1252
 110   2.0000      -6.067820      -165.1138
 111   2.0000      -6.066730      -165.0841
 112   2.0000      -6.064971      -165.0363
 113   2.0000      -6.064641      -165.0273
 114   2.0000      -6.063844      -165.0056
 115   2.0000      -6.060110      -164.9040
 116   2.0000      -6.057283      -164.8270
 117   2.0000      -1.218641       -33.1609
 118   2.0000      -1.188266       -32.3344
 119   2.0000      -1.174283       -31.9539
 120   2.0000      -1.174168       -31.9507
 121   2.0000      -1.172072       -31.8937
 122   2.0000      -1.067618       -29.0514
 123   2.0000      -1.065920       -29.0052
 124   2.0000      -1.065891       -29.0044
 125   2.0000      -1.061477       -28.8842
 126   2.0000      -1.052179       -28.6313
 127   2.0000      -1.050398       -28.5828
 128   2.0000      -1.037938       -28.2437
 129   2.0000      -1.031050       -28.0563
 130   2.0000      -1.030128       -28.0312
 131   2.0000      -1.028353       -27.9829
 132   2.0000      -1.026865       -27.9424
 133   2.0000      -1.025295       -27.8997
 134   2.0000      -1.018299       -27.7093
 135   2.0000      -1.007085       -27.4042
 136   2.0000      -0.996221       -27.1085
 137   2.0000      -0.994798       -27.0698
 138   2.0000      -0.981251       -26.7012
 139   2.0000      -0.975711       -26.5504
 140   2.0000      -0.968428       -26.3523
 141   2.0000      -0.966219       -26.2921
 142   2.0000      -0.942702       -25.6522
 143   2.0000      -0.939999       -25.5787
 144   2.0000      -0.934049       -25.4168
 145   2.0000      -0.928361       -25.2620
 146   2.0000      -0.922060       -25.0905
 147   2.0000      -0.916307       -24.9340
 148   2.0000      -0.900293       -24.4982
 149   2.0000      -0.896798       -24.4031
 150   2.0000      -0.896278       -24.3890
 151   2.0000      -0.894440       -24.3390
 152   2.0000      -0.886980       -24.1360
 153   2.0000      -0.884626       -24.0719
 154   2.0000      -0.883550       -24.0426
 155   2.0000      -0.881895       -23.9976
 156   2.0000      -0.880059       -23.9476
 157   2.0000      -0.878905       -23.9162
 158   2.0000      -0.876265       -23.8444
 159   2.0000      -0.871842       -23.7240
 160   2.0000      -0.846964       -23.0471
 161   2.0000      -0.834834       -22.7170
 162   2.0000      -0.822951       -22.3936
 163   2.0000      -0.806873       -21.9561
 164   2.0000      -0.805235       -21.9115
 165   2.0000      -0.803296       -21.8588
 166   2.0000      -0.801697       -21.8153
 167   2.0000      -0.790055       -21.4985
 168   2.0000      -0.789634       -21.4870
 169   2.0000      -0.771110       -20.9830
 170   2.0000      -0.768388       -20.9089
 171   2.0000      -0.756601       -20.5882
 172   2.0000      -0.742790       -20.2123
 173   2.0000      -0.741296       -20.1717
 174   2.0000      -0.739142       -20.1131
 175   2.0000      -0.736236       -20.0340
 176   2.0000      -0.733885       -19.9700
 177   2.0000      -0.731804       -19.9134
 178   2.0000      -0.729423       -19.8486
 179   2.0000      -0.726425       -19.7670
 180   2.0000      -0.723667       -19.6920
 181   2.0000      -0.719484       -19.5782
 182   2.0000      -0.715752       -19.4766
 183   2.0000      -0.700874       -19.0718
 184   2.0000      -0.690518       -18.7899
 185   2.0000      -0.682384       -18.5686
 186   2.0000      -0.681498       -18.5445
 187   2.0000      -0.674830       -18.3631
 188   2.0000      -0.672038       -18.2871
 189   2.0000      -0.669907       -18.2291
 190   2.0000      -0.669087       -18.2068
 191   2.0000      -0.663517       -18.0552
 192   2.0000      -0.659169       -17.9369
 193   2.0000      -0.652826       -17.7643
 194   2.0000      -0.652058       -17.7434
 195   2.0000      -0.650179       -17.6923
 196   2.0000      -0.642555       -17.4848
 197   2.0000      -0.635290       -17.2871
 198   2.0000      -0.626012       -17.0347
 199   2.0000      -0.619529       -16.8582
 200   2.0000      -0.615651       -16.7527
 201   2.0000      -0.614156       -16.7120
 202   2.0000      -0.610043       -16.6001
 203   2.0000      -0.603775       -16.4296
 204   2.0000      -0.600455       -16.3392
 205   2.0000      -0.598061       -16.2741
 206   2.0000      -0.595296       -16.1988
 207   2.0000      -0.593448       -16.1485
 208   2.0000      -0.589787       -16.0489
 209   2.0000      -0.587747       -15.9934
 210   2.0000      -0.584831       -15.9141
 211   2.0000      -0.581669       -15.8280
 212   2.0000      -0.581164       -15.8143
 213   2.0000      -0.580983       -15.8093
 214   2.0000      -0.579264       -15.7626
 215   2.0000      -0.578825       -15.7506
 216   2.0000      -0.576110       -15.6768
 217   2.0000      -0.574896       -15.6437
 218   2.0000      -0.569209       -15.4890
 219   2.0000      -0.568855       -15.4793
 220   2.0000      -0.567115       -15.4320
 221   2.0000      -0.566039       -15.4027
 222   2.0000      -0.563083       -15.3223
 223   2.0000      -0.558909       -15.2087
 224   2.0000      -0.556714       -15.1490
 225   2.0000      -0.552564       -15.0360
 226   2.0000      -0.550715       -14.9857
 227   2.0000      -0.545836       -14.8530
 228   2.0000      -0.543044       -14.7770
 229   2.0000      -0.542419       -14.7600
 230   2.0000      -0.539797       -14.6886
 231   2.0000      -0.538158       -14.6440
 232   2.0000      -0.536616       -14.6021
 233   2.0000      -0.534313       -14.5394
 234   2.0000      -0.531340       -14.4585
 235   2.0000      -0.527639       -14.3578
 236   2.0000      -0.527117       -14.3436
 237   2.0000      -0.524254       -14.2657
 238   2.0000      -0.520861       -14.1733
 239   2.0000      -0.520240       -14.1564
 240   2.0000      -0.518769       -14.1164
 241   2.0000      -0.516664       -14.0592
 242   2.0000      -0.515190       -14.0190
 243   2.0000      -0.512428       -13.9439
 244   2.0000      -0.511377       -13.9153
 245   2.0000      -0.509031       -13.8515
 246   2.0000      -0.508072       -13.8253
 247   2.0000      -0.507673       -13.8145
 248   2.0000      -0.505913       -13.7666
 249   2.0000      -0.504242       -13.7211
 250   2.0000      -0.497516       -13.5381
 251   2.0000      -0.496698       -13.5158
 252   2.0000      -0.495986       -13.4965
 253   2.0000      -0.493648       -13.4328
 254   2.0000      -0.488843       -13.3021
 255   2.0000      -0.487169       -13.2565
 256   2.0000      -0.485509       -13.2114
 257   2.0000      -0.482386       -13.1264
 258   2.0000      -0.481751       -13.1091
 259   2.0000      -0.480675       -13.0798
 260   2.0000      -0.479242       -13.0408
 261   2.0000      -0.478024       -13.0077
 262   2.0000      -0.476230       -12.9589
 263   2.0000      -0.475585       -12.9413
 264   2.0000      -0.473934       -12.8964
 265   2.0000      -0.473371       -12.8811
 266   2.0000      -0.471783       -12.8379
 267   2.0000      -0.470410       -12.8005
 268   2.0000      -0.470206       -12.7949
 269   2.0000      -0.469160       -12.7665
 270   2.0000      -0.468210       -12.7406
 271   2.0000      -0.463175       -12.6036
 272   2.0000      -0.461451       -12.5567
 273   2.0000      -0.460620       -12.5341
 274   2.0000      -0.459937       -12.5155
 275   2.0000      -0.459858       -12.5134
 276   2.0000      -0.459214       -12.4959
 277   2.0000      -0.458028       -12.4636
 278   2.0000      -0.455776       -12.4023
 279   2.0000      -0.455423       -12.3927
 280   2.0000      -0.455185       -12.3862
 281   2.0000      -0.445837       -12.1318
 282   2.0000      -0.443776       -12.0758
 283   2.0000      -0.442675       -12.0458
 284   2.0000      -0.441800       -12.0220
 285   2.0000      -0.441368       -12.0102
 286   2.0000      -0.440552       -11.9880
 287   2.0000      -0.437530       -11.9058
 288   2.0000      -0.436424       -11.8757
 289   2.0000      -0.436278       -11.8717
 290   2.0000      -0.435457       -11.8494
 291   2.0000      -0.433902       -11.8071
 292   2.0000      -0.429622       -11.6906
 293   2.0000      -0.428747       -11.6668
 294   2.0000      -0.426635       -11.6093
 295   2.0000      -0.413777       -11.2594
 296   2.0000      -0.412487       -11.2243
 297   2.0000      -0.410769       -11.1776
 298   2.0000      -0.406921       -11.0729
 299   2.0000      -0.401472       -10.9246
 300   2.0000      -0.397604       -10.8194
 301   2.0000      -0.382560       -10.4100
 302   2.0000      -0.375265       -10.2115
 303   2.0000      -0.374635       -10.1943
 304   2.0000      -0.372908       -10.1474
 305   2.0000      -0.371054       -10.0969
 306   2.0000      -0.369535       -10.0556
 307   2.0000      -0.365375        -9.9424
 308   2.0000      -0.361359        -9.8331
 309   2.0000      -0.358462        -9.7542
 310   2.0000      -0.356293        -9.6952
 311   2.0000      -0.348913        -9.4944
 312   2.0000      -0.341966        -9.3054
 313   2.0000      -0.338380        -9.2078
 314   2.0000      -0.327650        -8.9158
 315   2.0000      -0.290039        -7.8924
 316   2.0000      -0.270551        -7.3621
 317   0.0000      -0.080570        -2.1924
 318   0.0000      -0.068740        -1.8705
 319   0.0000      -0.049937        -1.3588
 320   0.0000      -0.041469        -1.1284
 321   0.0000      -0.036033        -0.9805

MULLIKEN ATOMIC CHARGES
-----------------------
   0 C :    0.230731
   1 O :   -0.191215
   2 C :   -0.062167
   3 C :   -0.013894
   4 C :    0.045371
   5 C :    0.029274
   6 C :    0.003542
   7 C :    0.011938
   8 C :    0.285886
   9 C :   -0.380236
  10 C :   -0.131741
  11 N :    0.106067
  12 C :   -0.132357
  13 N :    0.105625
  14 C :   -0.147179
  15 Cl:   -0.040529
  16 C :    0.072278
  17 Cl:   -0.049061
  18 C :    0.226714
  19 O :   -0.189612
  20 C :   -0.061551
  21 C :   -0.016092
  22 C :    0.043423
  23 C :    0.031133
  24 C :    0.003856
  25 C :    0.012853
  26 C :    0.287350
  27 C :   -0.385410
  28 C :   -0.130763
  29 N :    0.107788
  30 C :   -0.129115
  31 N :    0.103406
  32 C :   -0.145613
  33 Cl:   -0.041036
  34 C :    0.067269
  35 Cl:   -0.048951
  36 C :   -0.160444
  37 S :    0.179677
  38 C :   -0.051379
  39 C :   -0.026155
  40 C :    0.013766
  41 C :   -0.067189
  42 C :    0.019142
  43 C :   -0.189197
  44 S :    0.198620
  45 C :   -0.151662
  46 C :   -0.058530
  47 C :    0.142348
  48 C :    0.063824
  49 C :    0.132899
  50 C :   -0.006825
  51 C :    0.034209
  52 C :   -0.001842
  53 N :   -0.319650
  54 S :    0.534548
  55 N :   -0.351239
  56 C :   -0.170139
  57 S :    0.222113
  58 C :   -0.085601
  59 C :   -0.005724
  60 C :   -0.031588
  61 C :   -0.052119
  62 C :   -0.025907
  63 C :   -0.185100
  64 S :    0.181208
  65 C :   -0.164393
  66 C :    0.005575
  67 O :   -0.368017
  68 O :   -0.334289
  69 C :    0.016352
  70 C :    0.042178
  71 C :    0.157384
  72 C :    0.112778
  73 C :    0.018894
  74 C :    0.025411
  75 C :   -0.018590
  76 C :   -0.019669
  77 C :   -0.014912
  78 C :   -0.020428
  79 C :   -0.033087
  80 C :   -0.045428
  81 H :    0.025794
  82 H :    0.028438
  83 H :    0.024666
  84 H :    0.026285
  85 H :    0.026452
  86 H :    0.026633
  87 H :    0.036394
  88 H :    0.018855
  89 H :    0.021761
  90 H :    0.040057
  91 H :    0.030305
  92 H :    0.034136
  93 H :    0.031479
  94 H :    0.031423
  95 H :    0.012898
  96 H :    0.033831
  97 H :    0.050358
  98 H :    0.048164
  99 H :    0.042156
 100 H :    0.024782
 101 H :    0.030117
 102 H :    0.023757
 103 H :    0.038532
 104 H :    0.036095
 105 H :    0.041259
 106 H :    0.025174
 107 H :    0.040206
 108 H :    0.028981
 109 H :    0.042823
 110 H :    0.038939
 111 H :    0.032107
 112 H :    0.040718
 113 H :    0.037265
 114 H :    0.039821
 115 H :    0.051527
 116 H :    0.044511
 117 H :    0.039322
 118 H :    0.047945
 119 H :    0.042326
 120 H :    0.043903
Sum of atomic charges:    0.0000000

LOEWDIN ATOMIC CHARGES
----------------------
   0 C :    0.096727
   1 O :   -0.153581
   2 C :   -0.047242
   3 C :   -0.000350
   4 C :   -0.135270
   5 C :   -0.131255
   6 C :   -0.010449
   7 C :   -0.017327
   8 C :    0.079996
   9 C :   -0.150615
  10 C :   -0.019401
  11 N :   -0.054423
  12 C :   -0.014794
  13 N :   -0.055313
  14 C :   -0.126762
  15 Cl:    0.155210
  16 C :    0.057184
  17 Cl:    0.151122
  18 C :    0.095958
  19 O :   -0.152819
  20 C :   -0.047135
  21 C :   -0.000817
  22 C :   -0.135522
  23 C :   -0.131490
  24 C :   -0.010560
  25 C :   -0.017270
  26 C :    0.079896
  27 C :   -0.151086
  28 C :   -0.019559
  29 N :   -0.054348
  30 C :   -0.014509
  31 N :   -0.056153
  32 C :   -0.126478
  33 Cl:    0.154622
  34 C :    0.056471
  35 Cl:    0.150627
  36 C :   -0.188205
  37 S :    0.458265
  38 C :   -0.157811
  39 C :   -0.046583
  40 C :    0.002877
  41 C :   -0.211168
  42 C :   -0.026747
  43 C :   -0.038652
  44 S :    0.483585
  45 C :   -0.156558
  46 C :   -0.051838
  47 C :   -0.059135
  48 C :    0.046516
  49 C :    0.057113
  50 C :   -0.103196
  51 C :   -0.044746
  52 C :   -0.052327
  53 N :   -0.297070
  54 S :    0.637810
  55 N :   -0.298527
  56 C :   -0.154627
  57 S :    0.480962
  58 C :   -0.214825
  59 C :   -0.023556
  60 C :   -0.056752
  61 C :   -0.155016
  62 C :   -0.051013
  63 C :   -0.038229
  64 S :    0.459102
  65 C :   -0.190186
  66 C :    0.000633
  67 O :   -0.122654
  68 O :   -0.096894
  69 C :   -0.016730
  70 C :   -0.010500
  71 C :    0.087978
  72 C :    0.084736
  73 C :   -0.016496
  74 C :   -0.013761
  75 C :   -0.057668
  76 C :   -0.061588
  77 C :   -0.059328
  78 C :   -0.057439
  79 C :   -0.065226
  80 C :   -0.064350
  81 H :    0.048232
  82 H :    0.046913
  83 H :    0.044430
  84 H :    0.048251
  85 H :    0.046623
  86 H :    0.044390
  87 H :    0.037215
  88 H :    0.031563
  89 H :    0.035865
  90 H :    0.035158
  91 H :    0.023428
  92 H :    0.027929
  93 H :    0.030006
  94 H :    0.026763
  95 H :    0.009498
  96 H :    0.012674
  97 H :    0.018587
  98 H :    0.022072
  99 H :    0.027997
 100 H :    0.024276
 101 H :    0.027988
 102 H :    0.021470
 103 H :    0.026981
 104 H :    0.028867
 105 H :    0.027310
 106 H :    0.022172
 107 H :    0.032168
 108 H :    0.023230
 109 H :    0.029371
 110 H :    0.031794
 111 H :    0.025439
 112 H :    0.028033
 113 H :    0.029409
 114 H :    0.026630
 115 H :    0.033745
 116 H :    0.036332
 117 H :    0.025748
 118 H :    0.033198
 119 H :    0.035277
 120 H :    0.029506

  Mayer bond orders larger than 0.100000
B(  0-C ,  1-O ) :   2.1325 B(  0-C ,  2-C ) :   0.9563 B(  0-C , 14-C ) :   0.9638
B(  2-C ,  3-C ) :   1.3727 B(  2-C ,  7-C ) :   1.3361 B(  3-C ,  4-C ) :   1.3535
B(  3-C , 81-H ) :   1.0123 B(  4-C ,  5-C ) :   1.4091 B(  4-C , 17-Cl) :   1.0485
B(  5-C ,  6-C ) :   1.3723 B(  5-C , 15-Cl) :   1.0781 B(  6-C ,  7-C ) :   1.3705
B(  6-C , 82-H ) :   0.9823 B(  7-C ,  8-C ) :   0.9971 B(  8-C ,  9-C ) :   1.6250
B(  8-C , 14-C ) :   1.1123 B(  9-C , 10-C ) :   1.1309 B(  9-C , 12-C ) :   1.1334
B( 10-C , 11-N ) :   2.9643 B( 12-C , 13-N ) :   2.9674 B( 14-C , 16-C ) :   1.5574
B( 16-C , 65-C ) :   1.2917 B( 16-C , 83-H ) :   0.9097 B( 18-C , 19-O ) :   2.1399
B( 18-C , 20-C ) :   0.9567 B( 18-C , 32-C ) :   0.9630 B( 20-C , 21-C ) :   1.3715
B( 20-C , 25-C ) :   1.3354 B( 21-C , 22-C ) :   1.3534 B( 21-C , 84-H ) :   1.0129
B( 22-C , 23-C ) :   1.4087 B( 22-C , 35-Cl) :   1.0486 B( 23-C , 24-C ) :   1.3712
B( 23-C , 33-Cl) :   1.0789 B( 24-C , 25-C ) :   1.3699 B( 24-C , 85-H ) :   0.9840
B( 25-C , 26-C ) :   0.9975 B( 26-C , 27-C ) :   1.6261 B( 26-C , 32-C ) :   1.1101
B( 27-C , 28-C ) :   1.1312 B( 27-C , 30-C ) :   1.1328 B( 28-C , 29-N ) :   2.9660
B( 30-C , 31-N ) :   2.9663 B( 32-C , 34-C ) :   1.5588 B( 34-C , 36-C ) :   1.2884
B( 34-C , 86-H ) :   0.9115 B( 36-C , 37-S ) :   1.0733 B( 36-C , 40-C ) :   1.3540
B( 37-S , 38-C ) :   1.1465 B( 38-C , 39-C ) :   1.4407 B( 38-C , 41-C ) :   1.2206
B( 39-C , 40-C ) :   1.3877 B( 39-C , 43-C ) :   0.9283 B( 40-C , 87-H ) :   0.9824
B( 41-C , 42-C ) :   1.4970 B( 41-C , 44-S ) :   1.0617 B( 42-C , 43-C ) :   0.9256
B( 42-C , 46-C ) :   1.3186 B( 43-C , 69-C ) :   1.0298 B( 43-C , 70-C ) :   1.0170
B( 44-S , 45-C ) :   1.1386 B( 45-C , 46-C ) :   1.4512 B( 45-C , 47-C ) :   1.1287
B( 46-C , 88-H ) :   1.0009 B( 47-C , 48-C ) :   1.5027 B( 47-C , 52-C ) :   1.1363
B( 48-C , 49-C ) :   1.1537 B( 48-C , 67-O ) :   1.1299 B( 49-C , 50-C ) :   1.4275
B( 49-C , 68-O ) :   1.2177 B( 50-C , 51-C ) :   1.1856 B( 50-C , 56-C ) :   1.0458
B( 51-C , 52-C ) :   1.1547 B( 51-C , 53-N ) :   1.5423 B( 52-C , 55-N ) :   1.5124
B( 53-N , 54-S ) :   1.2558 B( 53-N , 55-N ) :   0.1424 B( 54-S , 55-N ) :   1.2520
B( 56-C , 57-S ) :   1.1620 B( 56-C , 60-C ) :   1.4720 B( 57-S , 58-C ) :   1.0742
B( 58-C , 59-C ) :   1.5140 B( 58-C , 61-C ) :   1.2234 B( 59-C , 60-C ) :   1.3415
B( 59-C , 63-C ) :   0.9357 B( 60-C , 89-H ) :   1.0022 B( 61-C , 62-C ) :   1.4450
B( 61-C , 64-S ) :   1.1520 B( 62-C , 63-C ) :   0.9147 B( 62-C , 66-C ) :   1.3897
B( 63-C , 73-C ) :   1.0323 B( 63-C , 74-C ) :   1.0159 B( 64-S , 65-C ) :   1.0717
B( 65-C , 66-C ) :   1.3606 B( 66-C , 90-H ) :   0.9700 B( 67-O , 71-C ) :   0.8834
B( 68-O , 72-C ) :   0.8958 B( 69-C , 75-C ) :   1.0888 B( 69-C , 91-H ) :   0.9472
B( 69-C , 92-H ) :   0.9485 B( 70-C , 76-C ) :   1.0994 B( 70-C , 93-H ) :   0.9466
B( 70-C , 94-H ) :   0.9447 B( 71-C , 80-C ) :   1.0967 B( 71-C , 95-H ) :   0.9483
B( 71-C , 96-H ) :   0.9507 B( 72-C , 79-C ) :   1.0944 B( 72-C , 97-H ) :   0.9447
B( 72-C , 98-H ) :   0.9466 B( 73-C , 78-C ) :   1.0869 B( 73-C , 99-H ) :   0.9462
B( 73-C ,100-H ) :   0.9485 B( 74-C , 77-C ) :   1.0979 B( 74-C ,101-H ) :   0.9474
B( 74-C ,102-H ) :   0.9442 B( 75-C ,103-H ) :   0.9690 B( 75-C ,104-H ) :   0.9704
B( 75-C ,105-H ) :   0.9674 B( 76-C ,106-H ) :   0.9650 B( 76-C ,107-H ) :   0.9657
B( 76-C ,108-H ) :   0.9676 B( 77-C ,109-H ) :   0.9668 B( 77-C ,110-H ) :   0.9663
B( 77-C ,111-H ) :   0.9669 B( 78-C ,112-H ) :   0.9702 B( 78-C ,113-H ) :   0.9708
B( 78-C ,114-H ) :   0.9666 B( 79-C ,115-H ) :   0.9687 B( 79-C ,116-H ) :   0.9642
B( 79-C ,117-H ) :   0.9699 B( 80-C ,118-H ) :   0.9687 B( 80-C ,119-H ) :   0.9650
B( 80-C ,120-H ) :   0.9721

-----------------------------------------------------------------------------
         ABSORPTION SPECTRUM VIA TRANSITION ELECTRIC DIPOLE MOMENTS
-----------------------------------------------------------------------------
State   Energy  Wavelength   fosc         T2         TX        TY        TZ
        (cm-1)    (nm)                  (au**2)     (au)      (au)      (au)
-----------------------------------------------------------------------------
   0   18040.8    554.3   3.640188662  66.42677  -2.15578   3.55451   7.01034
   1   23875.4    418.8   0.511417863   7.05182   0.73583   2.10433  -1.44297
   2   28259.6    353.9   0.059970170   0.69863   0.14758  -0.64473  -0.51105
   3   29123.0    343.4   0.031070068   0.35122   0.53267  -0.20990   0.15304
   4   29900.5    334.4   0.273440318   3.01064  -0.38017   0.93606   1.41064
   5   31471.9    317.7   0.004551557   0.04761   0.01415  -0.21760  -0.00791
   6   33674.7    297.0   0.099534962   0.97308  -0.06869   0.11959   0.97676
   7   35311.7    283.2   0.626069347   5.83687  -2.35693  -0.53054  -0.01695
   8   36386.0    274.8   0.085755189   0.77589  -0.77545  -0.07318   0.41135
   9   36680.6    272.6   0.144538761   1.29725   0.23159   0.22663   1.09190
  10   37258.9    268.4   0.080749486   0.71349  -0.07612   0.40184  -0.73906
  11   37374.5    267.6   0.084776445   0.74675   0.73553  -0.45312  -0.02077
  12   37650.5    265.6   0.105088829   0.91888  -0.08731  -0.77721  -0.55426
  13   38166.8    262.0   0.212659955   1.83432  -1.12576  -0.33197  -0.67586
  14   38986.4    256.5   0.068722089   0.58031  -0.44701  -0.17693   0.59092
  15   39070.6    255.9   0.075049610   0.63237   0.32149   0.70379   0.18357
  16   39386.3    253.9   0.276103247   2.30782   0.76887   0.05376   1.30911
  17   39557.1    252.8   1.229638945  10.23360  -2.81788  -1.45460   0.42106
  18   39903.0    250.6   0.059530751   0.49115  -0.39627  -0.17901   0.54961
  19   40284.3    248.2   0.134689898   1.10071  -0.47344  -0.93222   0.08676

Dispersion correction           -0.081829284
FINAL SINGLE POINT ENERGY     -6843.474034561470

DIPOLE MOMENT
-------------
                                X             Y             Z
Electronic contribution:     25.24083      90.35536     -29.39000
Nuclear contribution   :    -28.22123     -94.55759      30.05459
                        -----------------------------------------
Total Dipole Moment    :     -2.98040      -4.20223       0.66459
                        -----------------------------------------
Magnitude (a.u.)       :      5.19454
Magnitude (Debye)      :     13.20347

Rotational constants in cm-1:     0.001668     0.000129     0.000127
Rotational constants in MHz :    49.992350     3.877155     3.815462

                             ****ORCA TERMINATED NORMALLY****
TOTAL RUN TIME: 0 days 0 hours 14 minutes 27 seconds 163 msec
