                         Program Version 4.2.0 -  RELEASE  -
|  1> # ORCA input file
|  2> # SCF done       -170.226410382706          0.000552383659
|  3> ! wb97x-d3 def2-SVP def2/J RIJCOSX Grid4 TightSCF
|  4> %maxcore 5000
|  5> %tddft
|  6>     Mode sTDA
|  7>     Ethresh 5.0
|  8>     maxcore 5000
|  9> end
| 10>
| 11> %pal
| 12>   nprocs 6
| 13>   end
| 14> * xyz 0 1
| 15>    C       -1.06548        -0.16833         4.99290
| 16>    O       -0.25727         0.63987         5.40948
| 17>    C       -1.65734        -1.29216         5.72979
| 18>    C       -2.57512        -1.98418         4.87505
| 19>    C       -2.59958        -1.33203         3.57944
| 20>    C       -3.38442        -1.73603         2.52843
| 21>    C       -4.24056        -2.84995         2.64473
| 22>    N       -4.94456        -3.75323         2.72177
| 23>    C       -3.44993        -1.13605         1.25752
| 24>    N       -3.55483        -0.69638         0.20066
| 25>    C       -1.66201        -0.22612         3.64602
| 26>    C       -1.36804         0.61219         2.59964
| 27>    C       11.42440        11.59663        -3.17219
| 28>    O       10.31499        11.21223        -3.49055
| 29>    C       12.46609        12.13212        -4.05758
| 30>    C       13.61391        12.48280        -3.27572
| 31>    C       13.34567        12.18699        -1.88112
| 32>    C       14.23508        12.41341        -0.86082
| 33>    C       15.51037        12.95869        -1.11373
| 34>    N       16.55371        13.39913        -1.30067
| 35>    C       14.02044        12.15460         0.50543
| 36>    N       13.91202        11.97030         1.63478
| 37>    C       12.00706        11.62869        -1.81814
| 38>    C       11.40195        11.17923        -0.67138
| 39>    C       -0.46707         1.68020         2.50012
| 40>    C       -0.28922         2.36392         1.29229
| 41>    C        0.67113         3.35341         1.39279
| 42>    C        1.23244         3.44758         2.69163
| 43>    S        0.57143         2.29820         3.78791
| 44>    N        1.26432         4.26037         0.55277
| 45>    C        2.18914         4.95519         1.29090
| 46>    C        2.18389         4.45802         2.61153
| 47>    C        3.17928         5.96369         1.09298
| 48>    C        3.89488         6.18069         2.29949
| 49>    S        3.34745         5.20346         3.64803
| 50>    C        3.55083         6.71026        -0.04468
| 51>    C        4.69691         7.49350         0.03842
| 52>    C        5.43674         7.67578         1.24630
| 53>    C        4.96397         7.05600         2.41329
| 54>    S        5.43206         8.30050        -1.34522
| 55>    C        6.73196         8.83760        -0.34765
| 56>    C        6.60606         8.45707         1.00267
| 57>    C        7.93838         9.51142        -0.50052
| 58>    C        8.52661         9.52688         0.78934
| 59>    N        7.71471         8.88508         1.68867
| 60>    S        8.93158        10.25018        -1.69543
| 61>    C       10.15346        10.57792        -0.46341
| 62>    C        9.76932        10.13344         0.80620
| 63>    O        2.78848         6.54271        -1.15984
| 64>    O        5.57884         7.23768         3.62572
| 65>    C        2.51757         7.62903        -2.03584
| 66>    C        1.96356         8.85380        -1.32171
| 67>    C        4.81844         7.94078         4.60946
| 68>    C        5.40614         7.63666         5.97551
| 69>    C        8.04954         8.79406         3.08904
| 70>    C        7.79481        10.12063         3.80255
| 71>    C        0.85632         4.40748        -0.82290
| 72>    C       -0.32822         5.36255        -0.94762
| 73>    C       -1.56499        -1.83512         6.96901
| 74>    S       -2.60189        -3.20744         7.11204
| 75>    C       -3.16410        -3.04627         5.48862
| 76>    C       12.62559        12.37344        -5.38254
| 77>    S       14.18794        13.03538        -5.69776
| 78>    C       14.62816        12.98652        -4.03010
| 79>    H       -1.89782         0.42126         1.67349
| 80>    H       11.97938        11.27521         0.24089
| 81>    H       -0.84826         2.11199         0.40886
| 82>    H       10.40235        10.25369         1.66713
| 83>    H        3.40326         7.89553        -2.62146
| 84>    H        1.76772         7.21755        -2.71730
| 85>    H        2.71235         9.29353        -0.66752
| 86>    H        1.66837         9.59525        -2.05798
| 87>    H        1.09486         8.58517        -0.72438
| 88>    H        4.86982         9.01775         4.39401
| 89>    H        3.76819         7.63427         4.57311
| 90>    H        6.44915         7.93848         6.01359
| 91>    H        4.85150         8.17356         6.73934
| 92>    H        5.34358         6.57010         6.17213
| 93>    H        7.45700         7.99743         3.53561
| 94>    H        9.10957         8.53236         3.16211
| 95>    H        6.74609        10.39782         3.72729
| 96>    H        8.05743        10.03277         4.85294
| 97>    H        8.39125        10.91518         3.35993
| 98>    H        1.70109         4.77319        -1.40311
| 99>    H        0.57638         3.41593        -1.18866
|100>    H       -0.04927         6.35095        -0.59252
|101>    H       -0.63768         5.43768        -1.98612
|102>    H       -1.16926         5.00584        -0.35713
|103>    H       -0.96299        -1.52613         7.79974
|104>    H       -3.88291        -3.74458         5.10954
|105>    H       11.93828        12.20788        -6.18766
|106>    H       15.59823        13.33049        -3.73224
|107> *
|108>
|109>                          ****END OF INPUT****

CARTESIAN COORDINATES (ANGSTROEM)
---------------------------------
  C     -1.065480   -0.168330    4.992900
  O     -0.257270    0.639870    5.409480
  C     -1.657340   -1.292160    5.729790
  C     -2.575120   -1.984180    4.875050
  C     -2.599580   -1.332030    3.579440
  C     -3.384420   -1.736030    2.528430
  C     -4.240560   -2.849950    2.644730
  N     -4.944560   -3.753230    2.721770
  C     -3.449930   -1.136050    1.257520
  N     -3.554830   -0.696380    0.200660
  C     -1.662010   -0.226120    3.646020
  C     -1.368040    0.612190    2.599640
  C     11.424400   11.596630   -3.172190
  O     10.314990   11.212230   -3.490550
  C     12.466090   12.132120   -4.057580
  C     13.613910   12.482800   -3.275720
  C     13.345670   12.186990   -1.881120
  C     14.235080   12.413410   -0.860820
  C     15.510370   12.958690   -1.113730
  N     16.553710   13.399130   -1.300670
  C     14.020440   12.154600    0.505430
  N     13.912020   11.970300    1.634780
  C     12.007060   11.628690   -1.818140
  C     11.401950   11.179230   -0.671380
  C     -0.467070    1.680200    2.500120
  C     -0.289220    2.363920    1.292290
  C      0.671130    3.353410    1.392790
  C      1.232440    3.447580    2.691630
  S      0.571430    2.298200    3.787910
  N      1.264320    4.260370    0.552770
  C      2.189140    4.955190    1.290900
  C      2.183890    4.458020    2.611530
  C      3.179280    5.963690    1.092980
  C      3.894880    6.180690    2.299490
  S      3.347450    5.203460    3.648030
  C      3.550830    6.710260   -0.044680
  C      4.696910    7.493500    0.038420
  C      5.436740    7.675780    1.246300
  C      4.963970    7.056000    2.413290
  S      5.432060    8.300500   -1.345220
  C      6.731960    8.837600   -0.347650
  C      6.606060    8.457070    1.002670
  C      7.938380    9.511420   -0.500520
  C      8.526610    9.526880    0.789340
  N      7.714710    8.885080    1.688670
  S      8.931580   10.250180   -1.695430
  C     10.153460   10.577920   -0.463410
  C      9.769320   10.133440    0.806200
  O      2.788480    6.542710   -1.159840
  O      5.578840    7.237680    3.625720
  C      2.517570    7.629030   -2.035840
  C      1.963560    8.853800   -1.321710
  C      4.818440    7.940780    4.609460
  C      5.406140    7.636660    5.975510
  C      8.049540    8.794060    3.089040
  C      7.794810   10.120630    3.802550
  C      0.856320    4.407480   -0.822900
  C     -0.328220    5.362550   -0.947620
  C     -1.564990   -1.835120    6.969010
  S     -2.601890   -3.207440    7.112040
  C     -3.164100   -3.046270    5.488620
  C     12.625590   12.373440   -5.382540
  S     14.187940   13.035380   -5.697760
  C     14.628160   12.986520   -4.030100
  H     -1.897820    0.421260    1.673490
  H     11.979380   11.275210    0.240890
  H     -0.848260    2.111990    0.408860
  H     10.402350   10.253690    1.667130
  H      3.403260    7.895530   -2.621460
  H      1.767720    7.217550   -2.717300
  H      2.712350    9.293530   -0.667520
  H      1.668370    9.595250   -2.057980
  H      1.094860    8.585170   -0.724380
  H      4.869820    9.017750    4.394010
  H      3.768190    7.634270    4.573110
  H      6.449150    7.938480    6.013590
  H      4.851500    8.173560    6.739340
  H      5.343580    6.570100    6.172130
  H      7.457000    7.997430    3.535610
  H      9.109570    8.532360    3.162110
  H      6.746090   10.397820    3.727290
  H      8.057430   10.032770    4.852940
  H      8.391250   10.915180    3.359930
  H      1.701090    4.773190   -1.403110
  H      0.576380    3.415930   -1.188660
  H     -0.049270    6.350950   -0.592520
  H     -0.637680    5.437680   -1.986120
  H     -1.169260    5.005840   -0.357130
  H     -0.962990   -1.526130    7.799740
  H     -3.882910   -3.744580    5.109540
  H     11.938280   12.207880   -6.187660
  H     15.598230   13.330490   -3.732240

 Total Charge           Charge          ....    0
 Multiplicity           Mult            ....    1
 Number of Electrons    NEL             ....  486
 Basis Dimension        Dim             .... 1060

ORBITAL ENERGIES
----------------

  NO   OCC          E(Eh)            E(eV)
   0   2.0000     -89.003159     -2421.8991
   1   2.0000     -89.002061     -2421.8692
   2   2.0000     -88.984828     -2421.4003
   3   2.0000     -88.983575     -2421.3662
   4   2.0000     -88.983531     -2421.3650
   5   2.0000     -88.981867     -2421.3197
   6   2.0000     -19.299338      -525.1617
   7   2.0000     -19.291894      -524.9591
   8   2.0000     -19.251339      -523.8556
   9   2.0000     -19.249658      -523.8098
  10   2.0000     -14.511956      -394.8904
  11   2.0000     -14.510683      -394.8558
  12   2.0000     -14.448138      -393.1538
  13   2.0000     -14.446916      -393.1206
  14   2.0000     -14.442817      -393.0090
  15   2.0000     -14.441495      -392.9731
  16   2.0000     -10.402786      -283.0742
  17   2.0000     -10.401256      -283.0326
  18   2.0000     -10.391008      -282.7537
  19   2.0000     -10.381479      -282.4944
  20   2.0000     -10.375654      -282.3359
  21   2.0000     -10.374404      -282.3019
  22   2.0000     -10.371094      -282.2118
  23   2.0000     -10.367879      -282.1243
  24   2.0000     -10.366402      -282.0841
  25   2.0000     -10.366397      -282.0840
  26   2.0000     -10.363252      -281.9984
  27   2.0000     -10.362462      -281.9769
  28   2.0000     -10.355628      -281.7910
  29   2.0000     -10.354700      -281.7657
  30   2.0000     -10.354310      -281.7551
  31   2.0000     -10.354075      -281.7487
  32   2.0000     -10.353730      -281.7393
  33   2.0000     -10.353211      -281.7252
  34   2.0000     -10.352441      -281.7042
  35   2.0000     -10.350786      -281.6592
  36   2.0000     -10.349792      -281.6322
  37   2.0000     -10.349167      -281.6151
  38   2.0000     -10.348699      -281.6024
  39   2.0000     -10.347624      -281.5732
  40   2.0000     -10.347396      -281.5670
  41   2.0000     -10.347293      -281.5642
  42   2.0000     -10.346823      -281.5514
  43   2.0000     -10.346043      -281.5301
  44   2.0000     -10.344391      -281.4852
  45   2.0000     -10.343829      -281.4699
  46   2.0000     -10.343195      -281.4527
  47   2.0000     -10.340107      -281.3686
  48   2.0000     -10.336899      -281.2813
  49   2.0000     -10.336029      -281.2577
  50   2.0000     -10.335796      -281.2513
  51   2.0000     -10.335575      -281.2453
  52   2.0000     -10.334431      -281.2142
  53   2.0000     -10.334420      -281.2139
  54   2.0000     -10.333332      -281.1842
  55   2.0000     -10.332121      -281.1513
  56   2.0000     -10.326430      -280.9964
  57   2.0000     -10.324698      -280.9493
  58   2.0000     -10.321211      -280.8544
  59   2.0000     -10.320039      -280.8225
  60   2.0000     -10.305358      -280.4230
  61   2.0000     -10.304901      -280.4106
  62   2.0000     -10.303569      -280.3744
  63   2.0000     -10.302821      -280.3540
  64   2.0000      -8.117694      -220.8937
  65   2.0000      -8.116532      -220.8621
  66   2.0000      -8.097921      -220.3556
  67   2.0000      -8.096744      -220.3236
  68   2.0000      -8.094943      -220.2746
  69   2.0000      -8.093276      -220.2292
  70   2.0000      -6.077114      -165.3667
  71   2.0000      -6.075981      -165.3358
  72   2.0000      -6.072399      -165.2384
  73   2.0000      -6.071221      -165.2063
  74   2.0000      -6.070557      -165.1883
  75   2.0000      -6.069408      -165.1570
  76   2.0000      -6.058215      -164.8524
  77   2.0000      -6.056938      -164.8177
  78   2.0000      -6.055070      -164.7668
  79   2.0000      -6.054069      -164.7396
  80   2.0000      -6.053416      -164.7218
  81   2.0000      -6.052878      -164.7072
  82   2.0000      -6.050401      -164.6398
  83   2.0000      -6.048741      -164.5946
  84   2.0000      -6.048671      -164.5927
  85   2.0000      -6.047619      -164.5641
  86   2.0000      -6.046438      -164.5319
  87   2.0000      -6.044753      -164.4861
  88   2.0000      -1.204634       -32.7798
  89   2.0000      -1.196408       -32.5559
  90   2.0000      -1.170156       -31.8416
  91   2.0000      -1.168551       -31.7979
  92   2.0000      -1.140563       -31.0363
  93   2.0000      -1.139233       -31.0001
  94   2.0000      -1.058067       -28.7915
  95   2.0000      -1.056828       -28.7578
  96   2.0000      -1.041145       -28.3310
  97   2.0000      -1.039955       -28.2986
  98   2.0000      -1.038628       -28.2625
  99   2.0000      -1.026621       -27.9358
 100   2.0000      -1.025397       -27.9025
 101   2.0000      -1.020720       -27.7752
 102   2.0000      -1.019328       -27.7373
 103   2.0000      -1.014753       -27.6128
 104   2.0000      -0.996166       -27.1070
 105   2.0000      -0.994876       -27.0720
 106   2.0000      -0.966194       -26.2915
 107   2.0000      -0.945856       -25.7380
 108   2.0000      -0.936291       -25.4778
 109   2.0000      -0.933193       -25.3935
 110   2.0000      -0.929930       -25.3047
 111   2.0000      -0.924358       -25.1531
 112   2.0000      -0.912688       -24.8355
 113   2.0000      -0.909347       -24.7446
 114   2.0000      -0.893675       -24.3181
 115   2.0000      -0.886806       -24.1312
 116   2.0000      -0.884584       -24.0708
 117   2.0000      -0.882119       -24.0037
 118   2.0000      -0.876405       -23.8482
 119   2.0000      -0.875198       -23.8153
 120   2.0000      -0.863515       -23.4974
 121   2.0000      -0.856608       -23.3095
 122   2.0000      -0.846978       -23.0474
 123   2.0000      -0.841385       -22.8953
 124   2.0000      -0.825234       -22.4558
 125   2.0000      -0.820119       -22.3166
 126   2.0000      -0.794970       -21.6322
 127   2.0000      -0.788926       -21.4678
 128   2.0000      -0.787292       -21.4233
 129   2.0000      -0.782195       -21.2846
 130   2.0000      -0.770903       -20.9773
 131   2.0000      -0.763042       -20.7634
 132   2.0000      -0.757710       -20.6183
 133   2.0000      -0.751784       -20.4571
 134   2.0000      -0.733039       -19.9470
 135   2.0000      -0.724336       -19.7102
 136   2.0000      -0.716012       -19.4837
 137   2.0000      -0.710191       -19.3253
 138   2.0000      -0.709958       -19.3189
 139   2.0000      -0.707835       -19.2612
 140   2.0000      -0.700166       -19.0525
 141   2.0000      -0.698540       -19.0082
 142   2.0000      -0.688821       -18.7438
 143   2.0000      -0.677817       -18.4443
 144   2.0000      -0.676544       -18.4097
 145   2.0000      -0.674434       -18.3523
 146   2.0000      -0.673333       -18.3223
 147   2.0000      -0.658943       -17.9308
 148   2.0000      -0.653584       -17.7849
 149   2.0000      -0.650386       -17.6979
 150   2.0000      -0.642692       -17.4885
 151   2.0000      -0.637798       -17.3554
 152   2.0000      -0.630423       -17.1547
 153   2.0000      -0.628142       -17.0926
 154   2.0000      -0.623872       -16.9764
 155   2.0000      -0.614693       -16.7266
 156   2.0000      -0.608742       -16.5647
 157   2.0000      -0.600544       -16.3416
 158   2.0000      -0.597069       -16.2471
 159   2.0000      -0.594525       -16.1779
 160   2.0000      -0.592204       -16.1147
 161   2.0000      -0.589327       -16.0364
 162   2.0000      -0.587143       -15.9770
 163   2.0000      -0.581597       -15.8261
 164   2.0000      -0.575275       -15.6540
 165   2.0000      -0.573782       -15.6134
 166   2.0000      -0.573097       -15.5948
 167   2.0000      -0.569775       -15.5044
 168   2.0000      -0.565954       -15.4004
 169   2.0000      -0.564670       -15.3654
 170   2.0000      -0.562394       -15.3035
 171   2.0000      -0.561282       -15.2732
 172   2.0000      -0.554106       -15.0780
 173   2.0000      -0.552862       -15.0441
 174   2.0000      -0.551266       -15.0007
 175   2.0000      -0.540113       -14.6972
 176   2.0000      -0.534638       -14.5482
 177   2.0000      -0.533020       -14.5042
 178   2.0000      -0.529321       -14.4036
 179   2.0000      -0.529095       -14.3974
 180   2.0000      -0.527882       -14.3644
 181   2.0000      -0.526160       -14.3176
 182   2.0000      -0.524876       -14.2826
 183   2.0000      -0.522192       -14.2096
 184   2.0000      -0.521411       -14.1883
 185   2.0000      -0.517456       -14.0807
 186   2.0000      -0.516335       -14.0502
 187   2.0000      -0.512296       -13.9403
 188   2.0000      -0.510052       -13.8792
 189   2.0000      -0.509922       -13.8757
 190   2.0000      -0.508596       -13.8396
 191   2.0000      -0.506389       -13.7796
 192   2.0000      -0.505133       -13.7454
 193   2.0000      -0.503195       -13.6926
 194   2.0000      -0.501898       -13.6573
 195   2.0000      -0.495896       -13.4940
 196   2.0000      -0.493556       -13.4304
 197   2.0000      -0.491515       -13.3748
 198   2.0000      -0.489891       -13.3306
 199   2.0000      -0.485039       -13.1986
 200   2.0000      -0.480985       -13.0883
 201   2.0000      -0.479902       -13.0588
 202   2.0000      -0.478484       -13.0202
 203   2.0000      -0.477137       -12.9836
 204   2.0000      -0.476370       -12.9627
 205   2.0000      -0.475153       -12.9296
 206   2.0000      -0.472929       -12.8690
 207   2.0000      -0.470772       -12.8104
 208   2.0000      -0.469545       -12.7770
 209   2.0000      -0.468264       -12.7421
 210   2.0000      -0.465582       -12.6691
 211   2.0000      -0.462274       -12.5791
 212   2.0000      -0.459809       -12.5120
 213   2.0000      -0.458169       -12.4674
 214   2.0000      -0.457220       -12.4416
 215   2.0000      -0.457000       -12.4356
 216   2.0000      -0.454143       -12.3579
 217   2.0000      -0.449621       -12.2348
 218   2.0000      -0.443564       -12.0700
 219   2.0000      -0.442393       -12.0381
 220   2.0000      -0.441852       -12.0234
 221   2.0000      -0.439912       -11.9706
 222   2.0000      -0.435295       -11.8450
 223   2.0000      -0.432790       -11.7768
 224   2.0000      -0.426884       -11.6161
 225   2.0000      -0.420741       -11.4489
 226   2.0000      -0.408223       -11.1083
 227   2.0000      -0.404373       -11.0036
 228   2.0000      -0.388601       -10.5744
 229   2.0000      -0.378212       -10.2917
 230   2.0000      -0.370046       -10.0695
 231   2.0000      -0.366470        -9.9722
 232   2.0000      -0.364486        -9.9182
 233   2.0000      -0.363330        -9.8867
 234   2.0000      -0.361815        -9.8455
 235   2.0000      -0.360627        -9.8132
 236   2.0000      -0.341556        -9.2942
 237   2.0000      -0.338463        -9.2100
 238   2.0000      -0.331451        -9.0192
 239   2.0000      -0.314140        -8.5482
 240   2.0000      -0.296555        -8.0697
 241   2.0000      -0.295030        -8.0282
 242   2.0000      -0.263205        -7.1622
 243   0.0000      -0.073187        -1.9915
 244   0.0000      -0.059956        -1.6315
 245   0.0000      -0.020704        -0.5634
 246   0.0000      -0.016914        -0.4603
 247   0.0000       0.003100         0.0844

MULLIKEN ATOMIC CHARGES
-----------------------
   0 C :    0.258901
   1 O :   -0.198389
   2 C :   -0.026626
   3 C :    0.002032
   4 C :    0.288742
   5 C :   -0.377888
   6 C :   -0.133916
   7 N :    0.099655
   8 C :   -0.120286
   9 N :    0.089393
  10 C :   -0.164564
  11 C :   -0.002200
  12 C :    0.255244
  13 O :   -0.195941
  14 C :   -0.026966
  15 C :    0.000463
  16 C :    0.290173
  17 C :   -0.377568
  18 C :   -0.131460
  19 N :    0.100860
  20 C :   -0.119061
  21 N :    0.086506
  22 C :   -0.159838
  23 C :   -0.007021
  24 C :   -0.082611
  25 C :   -0.102863
  26 C :    0.194443
  27 C :   -0.087438
  28 S :    0.205594
  29 N :   -0.241291
  30 C :    0.093122
  31 C :   -0.128471
  32 C :    0.051152
  33 C :   -0.138332
  34 S :    0.154891
  35 C :    0.120646
  36 C :   -0.154624
  37 C :    0.074652
  38 C :    0.090089
  39 S :    0.120976
  40 C :   -0.122820
  41 C :    0.091112
  42 C :   -0.078988
  43 C :    0.191042
  44 N :   -0.236663
  45 S :    0.205770
  46 C :   -0.079342
  47 C :   -0.107817
  48 O :   -0.371629
  49 O :   -0.390100
  50 C :    0.113361
  51 C :   -0.063930
  52 C :    0.122711
  53 C :   -0.037589
  54 C :    0.063380
  55 C :   -0.053984
  56 C :    0.075104
  57 C :   -0.046237
  58 C :   -0.120823
  59 S :    0.130819
  60 C :   -0.118795
  61 C :   -0.120965
  62 S :    0.132321
  63 C :   -0.116763
  64 H :    0.026503
  65 H :    0.027115
  66 H :    0.027118
  67 H :    0.028695
  68 H :    0.059630
  69 H :    0.043909
  70 H :    0.053523
  71 H :    0.053504
  72 H :    0.043673
  73 H :    0.026513
  74 H :    0.048856
  75 H :    0.040864
  76 H :    0.046611
  77 H :    0.049094
  78 H :    0.071876
  79 H :    0.045276
  80 H :    0.039537
  81 H :    0.048410
  82 H :    0.042842
  83 H :    0.068254
  84 H :    0.042325
  85 H :    0.033625
  86 H :    0.045125
  87 H :    0.042880
  88 H :    0.065524
  89 H :    0.076930
  90 H :    0.066277
  91 H :    0.076158
Sum of atomic charges:   -0.0000000

LOEWDIN ATOMIC CHARGES
----------------------
   0 C :    0.091422
   1 O :   -0.166224
   2 C :   -0.095682
   3 C :   -0.068717
   4 C :    0.083492
   5 C :   -0.160459
   6 C :   -0.009888
   7 N :   -0.066196
   8 C :   -0.015912
   9 N :   -0.066553
  10 C :   -0.127411
  11 C :    0.064145
  12 C :    0.091232
  13 O :   -0.165517
  14 C :   -0.095773
  15 C :   -0.068785
  16 C :    0.083394
  17 C :   -0.159503
  18 C :   -0.009807
  19 N :   -0.065173
  20 C :   -0.015642
  21 N :   -0.065988
  22 C :   -0.126314
  23 C :    0.064078
  24 C :   -0.184766
  25 C :   -0.026282
  26 C :   -0.026518
  27 C :   -0.203739
  28 S :    0.472278
  29 N :    0.040123
  30 C :    0.010628
  31 C :   -0.225401
  32 C :   -0.071371
  33 C :   -0.155874
  34 S :    0.399622
  35 C :    0.032997
  36 C :   -0.171401
  37 C :   -0.065151
  38 C :    0.016378
  39 S :    0.394457
  40 C :   -0.225770
  41 C :    0.007904
  42 C :   -0.203590
  43 C :   -0.026082
  44 N :    0.039820
  45 S :    0.473098
  46 C :   -0.183884
  47 C :   -0.026550
  48 O :   -0.107567
  49 O :   -0.129318
  50 C :    0.072902
  51 C :   -0.075133
  52 C :    0.080448
  53 C :   -0.064088
  54 C :    0.035353
  55 C :   -0.064199
  56 C :    0.038496
  57 C :   -0.064026
  58 C :   -0.137523
  59 S :    0.469762
  60 C :   -0.145750
  61 C :   -0.137470
  62 S :    0.470815
  63 C :   -0.145377
  64 H :    0.051485
  65 H :    0.051710
  66 H :    0.041442
  67 H :    0.041737
  68 H :    0.004761
  69 H :    0.027708
  70 H :    0.029180
  71 H :    0.040223
  72 H :    0.029927
  73 H :    0.011620
  74 H :    0.008954
  75 H :    0.028461
  76 H :    0.037184
  77 H :    0.033428
  78 H :    0.028347
  79 H :    0.029263
  80 H :    0.026973
  81 H :    0.032976
  82 H :    0.028505
  83 H :    0.030320
  84 H :    0.028646
  85 H :    0.024874
  86 H :    0.032158
  87 H :    0.029408
  88 H :    0.038730
  89 H :    0.038372
  90 H :    0.038843
  91 H :    0.038290

  Mayer bond orders larger than 0.100000
B(  0-C ,  1-O ) :   2.1270 B(  0-C ,  2-C ) :   0.9659 B(  0-C , 10-C ) :   0.9708
B(  2-C ,  3-C ) :   1.2242 B(  2-C , 58-C ) :   1.5655 B(  3-C ,  4-C ) :   1.0090
B(  3-C , 60-C ) :   1.5519 B(  4-C ,  5-C ) :   1.6257 B(  4-C , 10-C ) :   1.1097
B(  5-C ,  6-C ) :   1.1406 B(  5-C ,  8-C ) :   1.1330 B(  6-C ,  7-N ) :   2.9854
B(  8-C ,  9-N ) :   2.9534 B( 10-C , 11-C ) :   1.5190 B( 11-C , 24-C ) :   1.3079
B( 11-C , 64-H ) :   0.9395 B( 12-C , 13-O ) :   2.1307 B( 12-C , 14-C ) :   0.9651
B( 12-C , 22-C ) :   0.9717 B( 14-C , 15-C ) :   1.2231 B( 14-C , 61-C ) :   1.5668
B( 15-C , 16-C ) :   1.0092 B( 15-C , 63-C ) :   1.5547 B( 16-C , 17-C ) :   1.6290
B( 16-C , 22-C ) :   1.1058 B( 17-C , 18-C ) :   1.1404 B( 17-C , 20-C ) :   1.1312
B( 18-C , 19-N ) :   2.9847 B( 20-C , 21-N ) :   2.9528 B( 22-C , 23-C ) :   1.5216
B( 23-C , 46-C ) :   1.3039 B( 23-C , 65-H ) :   0.9407 B( 24-C , 25-C ) :   1.3475
B( 24-C , 28-S ) :   1.0595 B( 25-C , 26-C ) :   1.2700 B( 25-C , 66-H ) :   1.0241
B( 26-C , 27-C ) :   1.3207 B( 26-C , 29-N ) :   1.1250 B( 27-C , 28-S ) :   1.0207
B( 27-C , 31-C ) :   1.4561 B( 29-N , 30-C ) :   1.1951 B( 29-N , 56-C ) :   0.9316
B( 30-C , 31-C ) :   1.4424 B( 30-C , 32-C ) :   1.1256 B( 31-C , 34-S ) :   0.9758
B( 32-C , 33-C ) :   1.3445 B( 32-C , 35-C ) :   1.3313 B( 32-C , 37-C ) :   0.1131
B( 33-C , 34-S ) :   1.0413 B( 33-C , 38-C ) :   1.3977 B( 35-C , 36-C ) :   1.3948
B( 35-C , 48-O ) :   1.1650 B( 36-C , 37-C ) :   1.3085 B( 36-C , 39-S ) :   1.0213
B( 37-C , 38-C ) :   1.3391 B( 37-C , 41-C ) :   1.1321 B( 38-C , 49-O ) :   1.1341
B( 39-S , 40-C ) :   0.9763 B( 40-C , 41-C ) :   1.4401 B( 40-C , 42-C ) :   1.4479
B( 41-C , 44-N ) :   1.1962 B( 42-C , 43-C ) :   1.3242 B( 42-C , 45-S ) :   1.0199
B( 43-C , 44-N ) :   1.1287 B( 43-C , 47-C ) :   1.2689 B( 44-N , 54-C ) :   0.9269
B( 45-S , 46-C ) :   1.0607 B( 46-C , 47-C ) :   1.3489 B( 47-C , 67-H ) :   1.0238
B( 48-O , 50-C ) :   0.9078 B( 49-O , 52-C ) :   0.8818 B( 50-C , 51-C ) :   1.0924
B( 50-C , 68-H ) :   0.9477 B( 50-C , 69-H ) :   0.9575 B( 51-C , 70-H ) :   0.9624
B( 51-C , 71-H ) :   0.9638 B( 51-C , 72-H ) :   0.9653 B( 52-C , 53-C ) :   1.0973
B( 52-C , 73-H ) :   0.9512 B( 52-C , 74-H ) :   0.9470 B( 53-C , 75-H ) :   0.9738
B( 53-C , 76-H ) :   0.9650 B( 53-C , 77-H ) :   0.9674 B( 54-C , 55-C ) :   1.0902
B( 54-C , 78-H ) :   0.9346 B( 54-C , 79-H ) :   0.9512 B( 55-C , 80-H ) :   0.9681
B( 55-C , 81-H ) :   0.9715 B( 55-C , 82-H ) :   0.9687 B( 56-C , 57-C ) :   1.0943
B( 56-C , 83-H ) :   0.9393 B( 56-C , 84-H ) :   0.9516 B( 57-C , 85-H ) :   0.9678
B( 57-C , 86-H ) :   0.9712 B( 57-C , 87-H ) :   0.9683 B( 58-C , 59-S ) :   1.1883
B( 58-C , 88-H ) :   0.9694 B( 59-S , 60-C ) :   1.1795 B( 60-C , 89-H ) :   0.9576
B( 61-C , 62-S ) :   1.1895 B( 61-C , 90-H ) :   0.9687 B( 62-S , 63-C ) :   1.1799
B( 63-C , 91-H ) :   0.9564

-----------------------------------------------------------------------------
         ABSORPTION SPECTRUM VIA TRANSITION ELECTRIC DIPOLE MOMENTS
-----------------------------------------------------------------------------
State   Energy  Wavelength   fosc         T2         TX        TY        TZ
        (cm-1)    (nm)                  (au**2)     (au)      (au)      (au)
-----------------------------------------------------------------------------
   0   20108.7    497.3   3.949896496  64.66620  -5.76674  -5.03541   2.46080
   1   26071.8    383.6   0.132466374   1.67267  -0.76941   1.01266   0.23492
   2   27296.9    366.3   0.416699189   5.02556   1.71791   0.91237   1.11443
   3   28432.7    351.7   0.022337363   0.25864  -0.30549   0.38953   0.11653
   4   32127.5    311.3   0.071175073   0.72933   0.51317   0.16826   0.66157
   5   32590.5    306.8   0.004888664   0.04938   0.10318   0.05713   0.18834
   6   32886.4    304.1   0.017526971   0.17546   0.14701  -0.01481   0.39195
   7   33294.1    300.4   0.000891280   0.00881  -0.05766   0.00152  -0.07406
   8   35067.4    285.2   0.477613601   4.48383  -0.20612   0.47231  -2.05384
   9   37077.2    269.7   0.042990741   0.38172  -0.43782   0.33749   0.27592
  10   37657.8    265.5   0.232916205   2.03620  -0.47602  -0.74353   1.12106
  11   38516.6    259.6   0.008058909   0.06888   0.11798   0.04231  -0.23059
  12   38665.3    258.6   0.324480757   2.76276  -0.28496  -0.67141   1.49358

Dispersion correction           -0.057840906
FINAL SINGLE POINT ENERGY     -4861.128744370892

DIPOLE MOMENT
-------------
                                X             Y             Z
Electronic contribution:     15.20826     -23.60499      -9.25564
Nuclear contribution   :    -16.06311      25.06511       9.38798
                        -----------------------------------------
Total Dipole Moment    :     -0.85485       1.46011       0.13233
                        -----------------------------------------
Magnitude (a.u.)       :      1.69712
Magnitude (Debye)      :      4.31374

Rotational constants in cm-1:     0.002985     0.000270     0.000256
Rotational constants in MHz :    89.499256     8.080836     7.676128

                             ****ORCA TERMINATED NORMALLY****
TOTAL RUN TIME: 0 days 0 hours 8 minutes 19 seconds 909 msec
