                         Program Version 4.2.0 -  RELEASE  -
|  1> # ORCA input file
|  2> # SCF done       -191.406189317444          0.000670878376
|  3> ! wb97x-d3 def2-SVP def2/J RIJCOSX Grid4 TightSCF
|  4> %maxcore 5000
|  5> %tddft
|  6>     Mode sTDA
|  7>     Ethresh 5.0
|  8>     maxcore 5000
|  9> end
| 10>
| 11> %pal
| 12>   nprocs 6
| 13>   end
| 14> * xyz 0 1
| 15>    C        1.18818        -0.12787        -0.30925
| 16>    C        0.83126         0.83262         0.66558
| 17>    S        0.15632         0.11206         2.13309
| 18>    C        0.36396        -1.43784         1.45051
| 19>    C        0.91613        -1.41155         0.15122
| 20>    N        1.08519        -2.71239        -0.30117
| 21>    C        0.96181        -3.07795        -1.69941
| 22>    C        0.66677        -3.54851         0.71992
| 23>    C        0.17200        -2.78417         1.80525
| 24>    C       -0.43460        -3.42478         2.91026
| 25>    N       -0.98345        -2.87498         3.98184
| 26>    S       -1.61087        -4.04510         4.90263
| 27>    N       -1.20674        -5.30673         3.97700
| 28>    C       -0.56179        -4.86024         2.91047
| 29>    C        0.03735        -5.60689         1.86981
| 30>    C        0.72260        -4.94893         0.82312
| 31>    N        1.35254        -5.87923        -0.00023
| 32>    C        2.69756        -5.62252        -0.49278
| 33>    C        3.75065        -6.03567         0.53490
| 34>    C        1.01121        -7.13101         0.49405
| 35>    C        0.21062        -6.98376         1.64017
| 36>    S       -0.25544        -8.46139         2.40234
| 37>    C        0.61507        -9.31909         1.16398
| 38>    C        1.22381        -8.48307         0.19138
| 39>    C       -0.36722        -2.60083        -2.28480
| 40>    C        0.22339         3.26082         2.63786
| 41>    O       -0.14984         2.29746         3.27824
| 42>    C        0.19444         4.66987         3.09037
| 43>    C       -0.23652         5.17162         4.30161
| 44>    C       -0.15740         6.54190         4.49342
| 45>    C        0.34153         7.37148         3.48959
| 46>    F        0.40952         8.69111         3.70197
| 47>    C        0.77221         6.86590         2.27157
| 48>    C        0.69607         5.49654         2.07186
| 49>    C        1.06078         4.66149         0.92536
| 50>    C        1.56246         5.13648        -0.26107
| 51>    C        1.90880         4.35904        -1.38499
| 52>    N        2.21227         3.80344        -2.34489
| 53>    C        1.80086         6.50106        -0.52994
| 54>    N        2.02359         7.59021        -0.81637
| 55>    C        0.78299         3.28689         1.28434
| 56>    C        1.02493         2.20221         0.47228
| 57>    C        1.79712       -14.18514        -0.37628
| 58>    C        1.46908       -15.34753         0.28176
| 59>    C        1.86595       -16.68100        -0.11616
| 60>    C        2.66067       -17.03897        -1.17575
| 61>    C        3.01265       -18.36925        -1.48767
| 62>    N        3.33488       -19.42554        -1.80080
| 63>    C        3.25165       -16.15426        -2.10134
| 64>    N        3.77529       -15.50606        -2.89280
| 65>    C        1.27752       -17.61692         0.84458
| 66>    C        1.33349       -18.99896         0.93046
| 67>    C        0.66168       -19.61451         1.97673
| 68>    F        0.70403       -20.94824         2.07642
| 69>    C       -0.05353       -18.88019         2.92240
| 70>    C       -0.11425       -17.49780         2.84384
| 71>    C        0.55484       -16.88668         1.80281
| 72>    C        0.65168       -15.44342         1.49322
| 73>    O        0.14360       -14.53821         2.12737
| 74>    N        1.82940        -9.26115        -0.76621
| 75>    C        1.63608       -10.57078        -0.39927
| 76>    C        0.88476       -10.63722         0.80486
| 77>    C        2.40300        -8.86802        -2.02910
| 78>    C        3.92974        -8.89970        -2.00757
| 79>    C        1.98093       -11.81147        -0.89235
| 80>    C        1.51371       -12.85012        -0.07457
| 81>    S        0.61170       -12.25332         1.32247
| 82>    C        1.87800         0.20803        -1.59570
| 83>    C        3.39334         0.28174        -1.38438
| 84>    F       -0.56227         7.07431         5.65315
| 85>    F       -0.68694       -19.51665         3.91529
| 86>    H        1.80298        -2.65919        -2.25960
| 87>    H        0.99675        -4.16432        -1.77497
| 88>    H        2.85081        -6.15900        -1.43141
| 89>    H        2.79878        -4.55438        -0.67999
| 90>    H        3.67594        -7.09548         0.76701
| 91>    H        4.74511        -5.82737         0.14894
| 92>    H        3.61126        -5.47458         1.45656
| 93>    H       -0.46363        -1.52061        -2.21607
| 94>    H       -0.43379        -2.89174        -3.32969
| 95>    H       -1.19494        -3.05379        -1.74333
| 96>    H       -0.62075         4.52489         5.07413
| 97>    H        1.14888         7.55143         1.53059
| 98>    H        1.45333         2.44521        -0.48955
| 99>    H        2.38235       -14.29636        -1.28093
|100>    H        1.87063       -19.61325         0.22682
|101>    H       -0.66546       -16.92532         3.57266
|102>    H        2.03791        -9.56238        -2.79310
|103>    H        2.03468        -7.87093        -2.27992
|104>    H        4.27909        -9.90053        -1.76799
|105>    H        4.31810        -8.62172        -2.98355
|106>    H        4.32494        -8.21240        -1.26487
|107>    H        2.54685       -12.00225        -1.78657
|108>    H        1.66165        -0.55251        -2.34427
|109>    H        1.52654         1.16051        -1.99365
|110>    H        3.77574        -0.66946        -1.01935
|111>    H        3.88709         0.52375        -2.32154
|112>    H        3.63972         1.05144        -0.65749
|113> *
|114>
|115>                          ****END OF INPUT****

CARTESIAN COORDINATES (ANGSTROEM)
---------------------------------
  C      1.188180   -0.127870   -0.309250
  C      0.831260    0.832620    0.665580
  S      0.156320    0.112060    2.133090
  C      0.363960   -1.437840    1.450510
  C      0.916130   -1.411550    0.151220
  N      1.085190   -2.712390   -0.301170
  C      0.961810   -3.077950   -1.699410
  C      0.666770   -3.548510    0.719920
  C      0.172000   -2.784170    1.805250
  C     -0.434600   -3.424780    2.910260
  N     -0.983450   -2.874980    3.981840
  S     -1.610870   -4.045100    4.902630
  N     -1.206740   -5.306730    3.977000
  C     -0.561790   -4.860240    2.910470
  C      0.037350   -5.606890    1.869810
  C      0.722600   -4.948930    0.823120
  N      1.352540   -5.879230   -0.000230
  C      2.697560   -5.622520   -0.492780
  C      3.750650   -6.035670    0.534900
  C      1.011210   -7.131010    0.494050
  C      0.210620   -6.983760    1.640170
  S     -0.255440   -8.461390    2.402340
  C      0.615070   -9.319090    1.163980
  C      1.223810   -8.483070    0.191380
  C     -0.367220   -2.600830   -2.284800
  C      0.223390    3.260820    2.637860
  O     -0.149840    2.297460    3.278240
  C      0.194440    4.669870    3.090370
  C     -0.236520    5.171620    4.301610
  C     -0.157400    6.541900    4.493420
  C      0.341530    7.371480    3.489590
  F      0.409520    8.691110    3.701970
  C      0.772210    6.865900    2.271570
  C      0.696070    5.496540    2.071860
  C      1.060780    4.661490    0.925360
  C      1.562460    5.136480   -0.261070
  C      1.908800    4.359040   -1.384990
  N      2.212270    3.803440   -2.344890
  C      1.800860    6.501060   -0.529940
  N      2.023590    7.590210   -0.816370
  C      0.782990    3.286890    1.284340
  C      1.024930    2.202210    0.472280
  C      1.797120  -14.185140   -0.376280
  C      1.469080  -15.347530    0.281760
  C      1.865950  -16.681000   -0.116160
  C      2.660670  -17.038970   -1.175750
  C      3.012650  -18.369250   -1.487670
  N      3.334880  -19.425540   -1.800800
  C      3.251650  -16.154260   -2.101340
  N      3.775290  -15.506060   -2.892800
  C      1.277520  -17.616920    0.844580
  C      1.333490  -18.998960    0.930460
  C      0.661680  -19.614510    1.976730
  F      0.704030  -20.948240    2.076420
  C     -0.053530  -18.880190    2.922400
  C     -0.114250  -17.497800    2.843840
  C      0.554840  -16.886680    1.802810
  C      0.651680  -15.443420    1.493220
  O      0.143600  -14.538210    2.127370
  N      1.829400   -9.261150   -0.766210
  C      1.636080  -10.570780   -0.399270
  C      0.884760  -10.637220    0.804860
  C      2.403000   -8.868020   -2.029100
  C      3.929740   -8.899700   -2.007570
  C      1.980930  -11.811470   -0.892350
  C      1.513710  -12.850120   -0.074570
  S      0.611700  -12.253320    1.322470
  C      1.878000    0.208030   -1.595700
  C      3.393340    0.281740   -1.384380
  F     -0.562270    7.074310    5.653150
  F     -0.686940  -19.516650    3.915290
  H      1.802980   -2.659190   -2.259600
  H      0.996750   -4.164320   -1.774970
  H      2.850810   -6.159000   -1.431410
  H      2.798780   -4.554380   -0.679990
  H      3.675940   -7.095480    0.767010
  H      4.745110   -5.827370    0.148940
  H      3.611260   -5.474580    1.456560
  H     -0.463630   -1.520610   -2.216070
  H     -0.433790   -2.891740   -3.329690
  H     -1.194940   -3.053790   -1.743330
  H     -0.620750    4.524890    5.074130
  H      1.148880    7.551430    1.530590
  H      1.453330    2.445210   -0.489550
  H      2.382350  -14.296360   -1.280930
  H      1.870630  -19.613250    0.226820
  H     -0.665460  -16.925320    3.572660
  H      2.037910   -9.562380   -2.793100
  H      2.034680   -7.870930   -2.279920
  H      4.279090   -9.900530   -1.767990
  H      4.318100   -8.621720   -2.983550
  H      4.324940   -8.212400   -1.264870
  H      2.546850  -12.002250   -1.786570
  H      1.661650   -0.552510   -2.344270
  H      1.526540    1.160510   -1.993650
  H      3.775740   -0.669460   -1.019350
  H      3.887090    0.523750   -2.321540
  H      3.639720    1.051440   -0.657490

 Total Charge           Charge          ....    0
 Multiplicity           Mult            ....    1
 Number of Electrons    NEL             ....  518
 Basis Dimension        Dim             .... 1145

ORBITAL ENERGIES
----------------

  NO   OCC          E(Eh)            E(eV)
   0   2.0000     -89.036350     -2422.8022
   1   2.0000     -88.992128     -2421.5989
   2   2.0000     -88.990535     -2421.5556
   3   2.0000     -88.986668     -2421.4503
   4   2.0000     -24.832783      -675.7344
   5   2.0000     -24.832383      -675.7235
   6   2.0000     -24.831371      -675.6960
   7   2.0000     -24.830751      -675.6791
   8   2.0000     -19.258955      -524.0628
   9   2.0000     -19.256982      -524.0091
  10   2.0000     -14.523075      -395.1930
  11   2.0000     -14.521650      -395.1542
  12   2.0000     -14.519862      -395.1055
  13   2.0000     -14.474634      -393.8748
  14   2.0000     -14.472284      -393.8109
  15   2.0000     -14.457516      -393.4090
  16   2.0000     -14.454718      -393.3329
  17   2.0000     -14.449199      -393.1827
  18   2.0000     -14.449051      -393.1787
  19   2.0000     -10.418701      -283.5073
  20   2.0000     -10.418259      -283.4952
  21   2.0000     -10.418109      -283.4911
  22   2.0000     -10.417500      -283.4746
  23   2.0000     -10.406369      -283.1717
  24   2.0000     -10.404933      -283.1326
  25   2.0000     -10.381885      -282.5055
  26   2.0000     -10.381636      -282.4987
  27   2.0000     -10.378674      -282.4181
  28   2.0000     -10.376819      -282.3676
  29   2.0000     -10.376430      -282.3570
  30   2.0000     -10.375338      -282.3273
  31   2.0000     -10.375030      -282.3189
  32   2.0000     -10.373916      -282.2886
  33   2.0000     -10.372728      -282.2563
  34   2.0000     -10.371199      -282.2147
  35   2.0000     -10.365183      -282.0510
  36   2.0000     -10.360576      -281.9256
  37   2.0000     -10.360369      -281.9200
  38   2.0000     -10.359845      -281.9057
  39   2.0000     -10.359595      -281.8989
  40   2.0000     -10.358888      -281.8797
  41   2.0000     -10.356432      -281.8128
  42   2.0000     -10.356220      -281.8071
  43   2.0000     -10.354129      -281.7502
  44   2.0000     -10.353062      -281.7211
  45   2.0000     -10.350934      -281.6632
  46   2.0000     -10.350796      -281.6595
  47   2.0000     -10.350236      -281.6442
  48   2.0000     -10.349765      -281.6314
  49   2.0000     -10.349609      -281.6272
  50   2.0000     -10.349335      -281.6197
  51   2.0000     -10.347870      -281.5798
  52   2.0000     -10.345920      -281.5268
  53   2.0000     -10.344612      -281.4912
  54   2.0000     -10.344220      -281.4805
  55   2.0000     -10.342276      -281.4276
  56   2.0000     -10.341722      -281.4126
  57   2.0000     -10.341380      -281.4033
  58   2.0000     -10.340927      -281.3909
  59   2.0000     -10.340790      -281.3872
  60   2.0000     -10.337200      -281.2895
  61   2.0000     -10.335573      -281.2452
  62   2.0000     -10.334770      -281.2234
  63   2.0000     -10.330615      -281.1103
  64   2.0000     -10.329184      -281.0714
  65   2.0000     -10.328665      -281.0573
  66   2.0000     -10.324492      -280.9437
  67   2.0000     -10.321730      -280.8686
  68   2.0000     -10.319141      -280.7981
  69   2.0000     -10.316054      -280.7141
  70   2.0000     -10.305258      -280.4203
  71   2.0000      -8.147490      -221.7045
  72   2.0000      -8.104858      -220.5444
  73   2.0000      -8.101913      -220.4643
  74   2.0000      -8.098131      -220.3614
  75   2.0000      -6.109223      -166.2404
  76   2.0000      -6.101326      -166.0255
  77   2.0000      -6.099311      -165.9707
  78   2.0000      -6.065038      -165.0381
  79   2.0000      -6.061998      -164.9554
  80   2.0000      -6.060876      -164.9248
  81   2.0000      -6.058034      -164.8475
  82   2.0000      -6.057348      -164.8288
  83   2.0000      -6.055894      -164.7892
  84   2.0000      -6.053513      -164.7245
  85   2.0000      -6.053472      -164.7233
  86   2.0000      -6.049851      -164.6248
  87   2.0000      -1.362403       -37.0729
  88   2.0000      -1.361858       -37.0580
  89   2.0000      -1.347333       -36.6628
  90   2.0000      -1.346789       -36.6480
  91   2.0000      -1.177386       -32.0383
  92   2.0000      -1.175755       -31.9939
  93   2.0000      -1.161221       -31.5984
  94   2.0000      -1.155167       -31.4337
  95   2.0000      -1.148786       -31.2601
  96   2.0000      -1.137938       -30.9649
  97   2.0000      -1.061522       -28.8855
  98   2.0000      -1.060896       -28.8685
  99   2.0000      -1.043441       -28.3935
 100   2.0000      -1.042651       -28.3720
 101   2.0000      -1.033589       -28.1254
 102   2.0000      -1.032887       -28.1063
 103   2.0000      -1.029280       -28.0081
 104   2.0000      -1.028742       -27.9935
 105   2.0000      -1.022935       -27.8355
 106   2.0000      -1.013186       -27.5702
 107   2.0000      -1.000583       -27.2273
 108   2.0000      -0.995760       -27.0960
 109   2.0000      -0.995275       -27.0828
 110   2.0000      -0.964260       -26.2389
 111   2.0000      -0.953349       -25.9420
 112   2.0000      -0.943482       -25.6734
 113   2.0000      -0.941402       -25.6169
 114   2.0000      -0.931116       -25.3370
 115   2.0000      -0.928691       -25.2710
 116   2.0000      -0.923524       -25.1304
 117   2.0000      -0.920801       -25.0563
 118   2.0000      -0.912382       -24.8272
 119   2.0000      -0.911917       -24.8145
 120   2.0000      -0.900565       -24.5056
 121   2.0000      -0.896438       -24.3933
 122   2.0000      -0.885834       -24.1048
 123   2.0000      -0.874283       -23.7904
 124   2.0000      -0.868584       -23.6354
 125   2.0000      -0.855966       -23.2920
 126   2.0000      -0.853625       -23.2283
 127   2.0000      -0.850492       -23.1431
 128   2.0000      -0.834351       -22.7038
 129   2.0000      -0.812606       -22.1121
 130   2.0000      -0.811908       -22.0931
 131   2.0000      -0.806282       -21.9400
 132   2.0000      -0.790487       -21.5102
 133   2.0000      -0.789115       -21.4729
 134   2.0000      -0.785380       -21.3713
 135   2.0000      -0.781382       -21.2625
 136   2.0000      -0.766017       -20.8444
 137   2.0000      -0.762243       -20.7417
 138   2.0000      -0.756125       -20.5752
 139   2.0000      -0.747530       -20.3413
 140   2.0000      -0.745525       -20.2868
 141   2.0000      -0.741120       -20.1669
 142   2.0000      -0.740856       -20.1597
 143   2.0000      -0.728341       -19.8192
 144   2.0000      -0.722356       -19.6563
 145   2.0000      -0.708913       -19.2905
 146   2.0000      -0.702963       -19.1286
 147   2.0000      -0.695260       -18.9190
 148   2.0000      -0.694094       -18.8873
 149   2.0000      -0.689208       -18.7543
 150   2.0000      -0.687228       -18.7004
 151   2.0000      -0.682495       -18.5716
 152   2.0000      -0.677631       -18.4393
 153   2.0000      -0.676621       -18.4118
 154   2.0000      -0.673625       -18.3303
 155   2.0000      -0.663343       -18.0505
 156   2.0000      -0.653862       -17.7925
 157   2.0000      -0.651671       -17.7329
 158   2.0000      -0.650358       -17.6971
 159   2.0000      -0.642935       -17.4951
 160   2.0000      -0.636475       -17.3194
 161   2.0000      -0.633636       -17.2421
 162   2.0000      -0.630188       -17.1483
 163   2.0000      -0.626373       -17.0445
 164   2.0000      -0.624250       -16.9867
 165   2.0000      -0.622947       -16.9512
 166   2.0000      -0.622403       -16.9365
 167   2.0000      -0.613747       -16.7009
 168   2.0000      -0.609563       -16.5871
 169   2.0000      -0.608005       -16.5447
 170   2.0000      -0.605638       -16.4803
 171   2.0000      -0.599593       -16.3158
 172   2.0000      -0.597271       -16.2526
 173   2.0000      -0.591619       -16.0988
 174   2.0000      -0.586300       -15.9540
 175   2.0000      -0.585489       -15.9320
 176   2.0000      -0.583417       -15.8756
 177   2.0000      -0.581841       -15.8327
 178   2.0000      -0.581307       -15.8182
 179   2.0000      -0.580921       -15.8077
 180   2.0000      -0.578666       -15.7463
 181   2.0000      -0.576514       -15.6877
 182   2.0000      -0.576313       -15.6823
 183   2.0000      -0.571871       -15.5614
 184   2.0000      -0.570010       -15.5108
 185   2.0000      -0.569479       -15.4963
 186   2.0000      -0.566081       -15.4038
 187   2.0000      -0.563761       -15.3407
 188   2.0000      -0.557987       -15.1836
 189   2.0000      -0.553935       -15.0733
 190   2.0000      -0.548015       -14.9122
 191   2.0000      -0.546211       -14.8632
 192   2.0000      -0.544030       -14.8038
 193   2.0000      -0.536897       -14.6097
 194   2.0000      -0.535955       -14.5841
 195   2.0000      -0.535322       -14.5668
 196   2.0000      -0.534148       -14.5349
 197   2.0000      -0.533084       -14.5060
 198   2.0000      -0.528994       -14.3947
 199   2.0000      -0.528285       -14.3754
 200   2.0000      -0.527217       -14.3463
 201   2.0000      -0.526255       -14.3201
 202   2.0000      -0.524226       -14.2649
 203   2.0000      -0.521075       -14.1792
 204   2.0000      -0.520597       -14.1662
 205   2.0000      -0.517374       -14.0784
 206   2.0000      -0.516407       -14.0521
 207   2.0000      -0.513012       -13.9598
 208   2.0000      -0.509441       -13.8626
 209   2.0000      -0.504291       -13.7225
 210   2.0000      -0.500437       -13.6176
 211   2.0000      -0.496862       -13.5203
 212   2.0000      -0.496144       -13.5008
 213   2.0000      -0.494427       -13.4540
 214   2.0000      -0.492478       -13.4010
 215   2.0000      -0.490347       -13.3430
 216   2.0000      -0.489752       -13.3268
 217   2.0000      -0.488842       -13.3021
 218   2.0000      -0.487209       -13.2576
 219   2.0000      -0.486563       -13.2401
 220   2.0000      -0.485918       -13.2225
 221   2.0000      -0.480334       -13.0706
 222   2.0000      -0.478970       -13.0334
 223   2.0000      -0.478376       -13.0173
 224   2.0000      -0.476183       -12.9576
 225   2.0000      -0.473870       -12.8946
 226   2.0000      -0.470887       -12.8135
 227   2.0000      -0.466836       -12.7033
 228   2.0000      -0.465707       -12.6725
 229   2.0000      -0.464440       -12.6381
 230   2.0000      -0.463779       -12.6201
 231   2.0000      -0.462312       -12.5802
 232   2.0000      -0.455265       -12.3884
 233   2.0000      -0.448970       -12.2171
 234   2.0000      -0.447090       -12.1659
 235   2.0000      -0.446734       -12.1563
 236   2.0000      -0.443793       -12.0762
 237   2.0000      -0.440792       -11.9945
 238   2.0000      -0.439827       -11.9683
 239   2.0000      -0.438667       -11.9367
 240   2.0000      -0.430615       -11.7176
 241   2.0000      -0.428541       -11.6612
 242   2.0000      -0.411241       -11.1904
 243   2.0000      -0.402448       -10.9512
 244   2.0000      -0.400898       -10.9090
 245   2.0000      -0.384723       -10.4689
 246   2.0000      -0.382095       -10.3973
 247   2.0000      -0.377180       -10.2636
 248   2.0000      -0.371586       -10.1114
 249   2.0000      -0.370831       -10.0908
 250   2.0000      -0.368741       -10.0340
 251   2.0000      -0.353573        -9.6212
 252   2.0000      -0.348850        -9.4927
 253   2.0000      -0.346745        -9.4354
 254   2.0000      -0.339283        -9.2324
 255   2.0000      -0.322384        -8.7725
 256   2.0000      -0.309853        -8.4315
 257   2.0000      -0.302916        -8.2428
 258   2.0000      -0.268282        -7.3003
 259   0.0000      -0.080022        -2.1775
 260   0.0000      -0.065536        -1.7833
 261   0.0000      -0.042726        -1.1626
 262   0.0000      -0.037421        -1.0183
 263   0.0000      -0.018430        -0.5015

MULLIKEN ATOMIC CHARGES
-----------------------
   0 C :   -0.106729
   1 C :   -0.132830
   2 S :    0.233527
   3 C :   -0.026365
   4 C :    0.108823
   5 N :   -0.266468
   6 C :    0.012384
   7 C :    0.088352
   8 C :   -0.081511
   9 C :    0.017738
  10 N :   -0.293221
  11 S :    0.491317
  12 N :   -0.297810
  13 C :    0.001697
  14 C :   -0.039189
  15 C :    0.058751
  16 N :   -0.252850
  17 C :    0.033403
  18 C :   -0.038032
  19 C :    0.053375
  20 C :   -0.099769
  21 S :    0.231898
  22 C :   -0.158915
  23 C :    0.097405
  24 C :   -0.029860
  25 C :    0.226692
  26 O :   -0.187574
  27 C :   -0.055664
  28 C :   -0.093731
  29 C :    0.241625
  30 C :    0.243459
  31 F :   -0.181143
  32 C :   -0.084424
  33 C :    0.020209
  34 C :    0.291217
  35 C :   -0.390501
  36 C :   -0.113238
  37 N :    0.087832
  38 C :   -0.131822
  39 N :    0.106892
  40 C :   -0.154721
  41 C :    0.009307
  42 C :    0.000682
  43 C :   -0.147994
  44 C :    0.291288
  45 C :   -0.384257
  46 C :   -0.132767
  47 N :    0.108783
  48 C :   -0.124671
  49 N :    0.089582
  50 C :    0.022753
  51 C :   -0.086084
  52 C :    0.245042
  53 F :   -0.180611
  54 C :    0.240215
  55 C :   -0.092692
  56 C :   -0.057907
  57 C :    0.230513
  58 O :   -0.193005
  59 N :   -0.238157
  60 C :    0.200709
  61 C :   -0.092733
  62 C :    0.061901
  63 C :   -0.038760
  64 C :   -0.112778
  65 C :   -0.081998
  66 S :    0.213296
  67 C :    0.018533
  68 C :   -0.000172
  69 F :   -0.184362
  70 F :   -0.184530
  71 H :    0.057223
  72 H :    0.061756
  73 H :    0.032176
  74 H :    0.065425
  75 H :    0.058929
  76 H :    0.051755
  77 H :    0.056368
  78 H :    0.056695
  79 H :    0.050353
  80 H :    0.052419
  81 H :    0.043379
  82 H :    0.044513
  83 H :   -0.021221
  84 H :    0.024496
  85 H :    0.044992
  86 H :    0.042669
  87 H :    0.055301
  88 H :    0.047072
  89 H :    0.049608
  90 H :    0.050214
  91 H :    0.033301
  92 H :    0.025487
  93 H :    0.016650
  94 H :    0.055831
  95 H :    0.025772
  96 H :    0.054195
  97 H :    0.035287
Sum of atomic charges:   -0.0000000

LOEWDIN ATOMIC CHARGES
----------------------
   0 C :   -0.016931
   1 C :   -0.193460
   2 S :    0.501048
   3 C :   -0.164813
   4 C :   -0.031743
   5 N :    0.009806
   6 C :    0.032023
   7 C :    0.027641
   8 C :   -0.087306
   9 C :   -0.050217
  10 N :   -0.282669
  11 S :    0.609088
  12 N :   -0.283926
  13 C :   -0.056329
  14 C :   -0.063991
  15 C :    0.001285
  16 N :    0.005356
  17 C :    0.036373
  18 C :   -0.062717
  19 C :   -0.038490
  20 C :   -0.172629
  21 S :    0.431917
  22 C :   -0.222336
  23 C :   -0.007732
  24 C :   -0.061665
  25 C :    0.089396
  26 O :   -0.159018
  27 C :   -0.048196
  28 C :   -0.006837
  29 C :    0.074666
  30 C :    0.076440
  31 F :   -0.048606
  32 C :   -0.017908
  33 C :   -0.020789
  34 C :    0.084328
  35 C :   -0.157932
  36 C :   -0.010099
  37 N :   -0.066481
  38 C :   -0.015488
  39 N :   -0.057194
  40 C :   -0.133363
  41 C :    0.063210
  42 C :    0.064066
  43 C :   -0.133551
  44 C :    0.082425
  45 C :   -0.153530
  46 C :   -0.015245
  47 N :   -0.056013
  48 C :   -0.013276
  49 N :   -0.063442
  50 C :   -0.019494
  51 C :   -0.017899
  52 C :    0.076910
  53 F :   -0.048112
  54 C :    0.074431
  55 C :   -0.006744
  56 C :   -0.049122
  57 C :    0.091335
  58 O :   -0.163150
  59 N :    0.021369
  60 C :   -0.028732
  61 C :   -0.196199
  62 C :    0.041668
  63 C :   -0.064065
  64 C :   -0.029264
  65 C :   -0.186688
  66 S :    0.480405
  67 C :   -0.035341
  68 C :   -0.044242
  69 F :   -0.049881
  70 F :   -0.049899
  71 H :    0.024913
  72 H :    0.031736
  73 H :    0.020148
  74 H :    0.033396
  75 H :    0.029898
  76 H :    0.035318
  77 H :    0.038177
  78 H :    0.031254
  79 H :    0.036205
  80 H :    0.036507
  81 H :    0.056133
  82 H :    0.053706
  83 H :    0.044879
  84 H :    0.050843
  85 H :    0.053796
  86 H :    0.055829
  87 H :    0.035464
  88 H :    0.027810
  89 H :    0.033861
  90 H :    0.035860
  91 H :    0.027423
  92 H :    0.040791
  93 H :    0.028420
  94 H :    0.038411
  95 H :    0.023659
  96 H :    0.034428
  97 H :    0.028703

  Mayer bond orders larger than 0.100000
B(  0-C ,  1-C ) :   1.3650 B(  0-C ,  4-C ) :   1.3833 B(  0-C , 67-C ) :   1.0567
B(  1-C ,  2-S ) :   1.0490 B(  1-C , 41-C ) :   1.3353 B(  2-S ,  3-C ) :   1.0562
B(  3-C ,  4-C ) :   1.3425 B(  3-C ,  8-C ) :   1.3185 B(  4-C ,  5-N ) :   1.0992
B(  5-N ,  6-C ) :   0.9309 B(  5-N ,  7-C ) :   1.1440 B(  6-C , 24-C ) :   1.0960
B(  6-C , 71-H ) :   0.9504 B(  6-C , 72-H ) :   0.9473 B(  7-C ,  8-C ) :   1.3941
B(  7-C , 15-C ) :   1.1738 B(  8-C ,  9-C ) :   1.1392 B(  9-C , 10-N ) :   1.6160
B(  9-C , 13-C ) :   1.1341 B( 10-N , 11-S ) :   1.2357 B( 10-N , 12-N ) :   0.1319
B( 11-S , 12-N ) :   1.2382 B( 12-N , 13-C ) :   1.6099 B( 13-C , 14-C ) :   1.1240
B( 14-C , 15-C ) :   1.4155 B( 14-C , 20-C ) :   1.3471 B( 15-C , 16-N ) :   1.1073
B( 16-N , 17-C ) :   0.9330 B( 16-N , 19-C ) :   1.1309 B( 17-C , 18-C ) :   1.1011
B( 17-C , 73-H ) :   0.9506 B( 17-C , 74-H ) :   0.9473 B( 18-C , 75-H ) :   0.9575
B( 18-C , 76-H ) :   0.9667 B( 18-C , 77-H ) :   0.9642 B( 19-C , 20-C ) :   1.4259
B( 19-C , 23-C ) :   1.2558 B( 20-C , 21-S ) :   1.0432 B( 21-S , 22-C ) :   0.9976
B( 22-C , 23-C ) :   1.4017 B( 22-C , 61-C ) :   1.4749 B( 23-C , 59-N ) :   1.1724
B( 24-C , 78-H ) :   0.9625 B( 24-C , 79-H ) :   0.9686 B( 24-C , 80-H ) :   0.9666
B( 25-C , 26-O ) :   2.1503 B( 25-C , 27-C ) :   0.9640 B( 25-C , 40-C ) :   0.9705
B( 27-C , 28-C ) :   1.3456 B( 27-C , 33-C ) :   1.3473 B( 28-C , 29-C ) :   1.3254
B( 28-C , 81-H ) :   1.0148 B( 29-C , 30-C ) :   1.2967 B( 29-C , 69-F ) :   1.0995
B( 30-C , 31-F ) :   1.1134 B( 30-C , 32-C ) :   1.3481 B( 32-C , 33-C ) :   1.3380
B( 32-C , 82-H ) :   0.9874 B( 33-C , 34-C ) :   1.0109 B( 34-C , 35-C ) :   1.6160
B( 34-C , 40-C ) :   1.1168 B( 35-C , 36-C ) :   1.1458 B( 35-C , 38-C ) :   1.1303
B( 36-C , 37-N ) :   2.9486 B( 38-C , 39-N ) :   2.9734 B( 40-C , 41-C ) :   1.5188
B( 41-C , 83-H ) :   0.9226 B( 42-C , 43-C ) :   1.4945 B( 42-C , 65-C ) :   1.3243
B( 42-C , 84-H ) :   0.9370 B( 43-C , 44-C ) :   1.1131 B( 43-C , 57-C ) :   0.9838
B( 44-C , 45-C ) :   1.6245 B( 44-C , 50-C ) :   1.0128 B( 45-C , 46-C ) :   1.1307
B( 45-C , 48-C ) :   1.1377 B( 46-C , 47-N ) :   2.9736 B( 48-C , 49-N ) :   2.9511
B( 50-C , 51-C ) :   1.3381 B( 50-C , 56-C ) :   1.3459 B( 51-C , 52-C ) :   1.3483
B( 51-C , 85-H ) :   0.9881 B( 52-C , 53-F ) :   1.1137 B( 52-C , 54-C ) :   1.2958
B( 54-C , 55-C ) :   1.3269 B( 54-C , 70-F ) :   1.0998 B( 55-C , 56-C ) :   1.3450
B( 55-C , 86-H ) :   1.0154 B( 56-C , 57-C ) :   0.9659 B( 57-C , 58-O ) :   2.1378
B( 59-N , 60-C ) :   1.0962 B( 59-N , 62-C ) :   0.9356 B( 60-C , 61-C ) :   1.3181
B( 60-C , 64-C ) :   1.2844 B( 61-C , 66-S ) :   1.0341 B( 62-C , 63-C ) :   1.0880
B( 62-C , 87-H ) :   0.9512 B( 62-C , 88-H ) :   0.9578 B( 63-C , 89-H ) :   0.9680
B( 63-C , 90-H ) :   0.9697 B( 63-C , 91-H ) :   0.9665 B( 64-C , 65-C ) :   1.3294
B( 64-C , 92-H ) :   1.0243 B( 65-C , 66-S ) :   1.0579 B( 67-C , 68-C ) :   1.0973
B( 67-C , 93-H ) :   0.9303 B( 67-C , 94-H ) :   0.9014 B( 68-C , 95-H ) :   0.9692
B( 68-C , 96-H ) :   0.9720 B( 68-C , 97-H ) :   0.9694

-----------------------------------------------------------------------------
         ABSORPTION SPECTRUM VIA TRANSITION ELECTRIC DIPOLE MOMENTS
-----------------------------------------------------------------------------
State   Energy  Wavelength   fosc         T2         TX        TY        TZ
        (cm-1)    (nm)                  (au**2)     (au)      (au)      (au)
-----------------------------------------------------------------------------
   0   19135.5    522.6   3.957179133  68.08042   0.31662  -8.23552  -0.39539
   1   25700.8    389.1   0.151748538   1.94381   0.97907  -0.22241  -0.96735
   2   28603.4    349.6   0.007348451   0.08458   0.06140  -0.25520  -0.12521
   3   28941.8    345.5   0.259036031   2.94653  -0.95145  -0.08935   1.42594
   4   29534.9    338.6   0.025923612   0.28896  -0.10231   0.52505   0.05307
   5   29900.0    334.4   0.063786240   0.70231   0.26470  -0.25251  -0.75398
   6   32181.6    310.7   0.141691438   1.44948  -0.24271  -1.07084   0.49383
   7   32621.8    306.5   0.034470507   0.34787  -0.00707  -0.58643   0.06259
   8   34813.0    287.2   0.060590995   0.57298  -0.45557   0.24650   0.55198
   9   35232.1    283.8   0.032047586   0.29946   0.15406   0.49393   0.17820
  10   37225.7    268.6   0.894134152   7.90743  -1.28910  -0.43609   2.46079
  11   37467.9    266.9   0.151864249   1.33436   0.21967  -0.71780  -0.87799
  12   38377.9    260.6   0.143298252   1.22924   0.52014  -0.11812  -0.97198
  13   39143.7    255.5   0.110719577   0.93119   0.65761   0.29226  -0.64291
  14   39705.5    251.9   0.047151984   0.39095  -0.14450  -0.05381   0.60595

Dispersion correction           -0.063289862
FINAL SINGLE POINT ENERGY     -4629.442971711521

DIPOLE MOMENT
-------------
                                X             Y             Z
Electronic contribution:    -34.62453     -21.46802      59.60059
Nuclear contribution   :     34.86297      21.64433     -60.35290
                        -----------------------------------------
Total Dipole Moment    :      0.23845       0.17631      -0.75231
                        -----------------------------------------
Magnitude (a.u.)       :      0.80865
Magnitude (Debye)      :      2.05542

Rotational constants in cm-1:     0.002956     0.000228     0.000214
Rotational constants in MHz :    88.608281     6.837632     6.411583

                             ****ORCA TERMINATED NORMALLY****
TOTAL RUN TIME: 0 days 0 hours 9 minutes 24 seconds 199 msec
