                         Program Version 4.2.0 -  RELEASE  -
|  1> # ORCA input file
|  2> # SCF done       -216.212165116586          0.000460123677
|  3> ! wb97x-d3 def2-SVP def2/J RIJCOSX Grid4 TightSCF
|  4> %maxcore 5000
|  5> %tddft
|  6>     Mode sTDA
|  7>     Ethresh 5.0
|  8>     maxcore 5000
|  9> end
| 10>
| 11> %pal
| 12>   nprocs 6
| 13>   end
| 14> * xyz 0 1
| 15>    C       -4.74551         2.36983        -2.48632
| 16>    O       -4.40581         2.25306        -1.31980
| 17>    C       -5.78122         1.58163        -3.17300
| 18>    C       -6.58345         0.59992        -2.67021
| 19>    C       -7.53070        -0.01587        -3.51964
| 20>    C       -7.62175         0.40248        -4.87770
| 21>    C       -6.77220         1.42166        -5.36963
| 22>    C       -5.86260         2.00572        -4.52983
| 23>    C       -4.87969         3.06597        -4.74338
| 24>    C       -4.64578         3.69176        -5.94384
| 25>    C       -3.69087         4.70086        -6.17749
| 26>    N       -2.93696         5.52348        -6.45461
| 27>    C       -5.33801         3.39734        -7.13584
| 28>    N       -5.86074         3.21202        -8.14177
| 29>    C       -4.21793         3.30837        -3.47937
| 30>    C       -3.28440         4.28963        -3.23542
| 31>    C       -2.15339         8.36616        18.12092
| 32>    O       -2.22612         7.24798        17.64510
| 33>    C       -2.57083         8.73253        19.48502
| 34>    C       -3.12128         7.93306        20.44389
| 35>    C       -3.45673         8.49310        21.69678
| 36>    C       -3.20758         9.87614        21.92717
| 37>    C       -2.63383        10.67732        20.91252
| 38>    C       -2.32030        10.11467        19.70383
| 39>    C       -1.74371        10.67566        18.48533
| 40>    C       -1.41753        11.99986        18.32156
| 41>    C       -0.90524        12.61010        17.15825
| 42>    N       -0.49724        13.20482        16.26295
| 43>    C       -1.56839        12.97947        19.32513
| 44>    N       -1.65883        13.83337        20.08818
| 45>    C       -1.62912         9.60556        17.50966
| 46>    C       -1.08420         9.78244        16.25964
| 47>    C       -0.96225         8.92047        15.16181
| 48>    S       -0.19332         9.60499        13.71973
| 49>    C       -0.46683         8.15091        12.87237
| 50>    C       -1.09720         7.17136        13.65993
| 51>    C       -1.37999         7.60858        14.93623
| 52>    C       -0.30603         7.64729        11.56476
| 53>    C       -0.83542         6.35969        11.50268
| 54>    C       -1.33582         5.91572        12.85606
| 55>    S        0.27044         8.19034        10.04188
| 56>    C       -0.21425         6.67220         9.30308
| 57>    C       -0.77824         5.81191        10.22684
| 58>    C       -0.09759         6.48764         7.87931
| 59>    C       -0.22669         5.22777         7.26220
| 60>    C       -0.29466         5.15802         5.88503
| 61>    C       -0.18859         6.27846         5.06098
| 62>    C        0.05950         7.53118         5.67433
| 63>    C        0.07956         7.60409         7.05493
| 64>    C       -0.38859         6.13606         3.64091
| 65>    S       -1.34932         4.78360         3.07083
| 66>    C       -1.21508         5.35218         1.45868
| 67>    C       -0.44531         6.51007         1.36689
| 68>    C        0.01847         6.95128         2.60177
| 69>    C       -1.71087         5.01038         0.18311
| 70>    C       -1.23687         5.95882        -0.74410
| 71>    C       -0.33524         6.96794        -0.06970
| 72>    S       -2.77604         3.85676        -0.48844
| 73>    C       -2.62402         4.64278        -2.05631
| 74>    C       -1.75368         5.74687        -1.99849
| 75>    O       -0.32100         4.05482         7.97969
| 76>    C        1.13689         6.80733        -0.50944
| 77>    C        1.39909         7.08000        -1.98428
| 78>    C       -2.81971         5.52001        12.82856
| 79>    C       -3.70272         6.59514        12.20566
| 80>    O        0.19780         8.60014         4.85125
| 81>    C        0.40922         9.89612         5.38288
| 82>    C        1.84806        10.12336         5.83632
| 83>    C        0.90288         3.59983         8.54108
| 84>    C        1.89825         3.13811         7.48343
| 85>    C       -0.44038         4.75180        13.33764
| 86>    C       -0.73433         4.26062        14.74855
| 87>    C       -0.83411         8.40819        -0.25888
| 88>    C       -2.23022         8.62449         0.31346
| 89>    C       -8.57185        -0.21540        -5.71527
| 90>    C       -9.39365        -1.19951        -5.23626
| 91>    C       -9.30279        -1.61067        -3.89865
| 92>    C       -8.39062        -1.03123        -3.05853
| 93>    C       -3.54546        10.42647        23.18010
| 94>    C       -4.10344         9.64982        24.15890
| 95>    C       -4.34871         8.28783        23.93038
| 96>    C       -4.03211         7.72181        22.72524
| 97>    H       -6.50018         0.29872        -1.63640
| 98>    H       -6.86938         1.71497        -6.40267
| 99>    H       -3.02166         4.92444        -4.07314
|100>    H       -3.30097         6.88629        20.24758
|101>    H       -2.45833        11.71978        21.12347
|102>    H       -0.68538        10.77008        16.06107
|103>    H       -1.88070         7.04168        15.69898
|104>    H       -1.16555         4.84819         9.95336
|105>    H       -0.44108         4.18669         5.43705
|106>    H        0.19484         8.55886         7.54325
|107>    H        0.62364         7.82366         2.75486
|108>    H       -1.56302         6.35114        -2.86793
|109>    H        1.74288         7.48261         0.09867
|110>    H        1.44633         5.78492        -0.27819
|111>    H        1.14861         8.10335        -2.24920
|112>    H        2.45430         6.92541        -2.19804
|113>    H        0.82469         6.40337        -2.61038
|114>    H       -2.92198         4.59188        12.26268
|115>    H       -3.14987         5.33822        13.85139
|116>    H       -3.42550         6.77439        11.16917
|117>    H       -4.74357         6.28210        12.23170
|118>    H       -3.61335         7.53082        12.75328
|119>    H        0.17539        10.56444         4.54905
|120>    H       -0.29725        10.10243         6.19509
|121>    H        2.52950         9.94669         5.00784
|122>    H        1.96368        11.14914         6.17450
|123>    H        2.11566         9.45337         6.64927
|124>    H        1.35291         4.38674         9.16164
|125>    H        0.61682         2.76365         9.18381
|126>    H        2.18921         3.97061         6.84597
|127>    H        2.78502         2.73857         7.96740
|128>    H        1.45357         2.36352         6.86391
|129>    H       -0.55847         3.92605        12.63215
|130>    H        0.59964         5.08521        13.28663
|131>    H       -1.73599         3.84703        14.82250
|132>    H       -0.02632         3.47778        15.01159
|133>    H       -0.63423         5.06535        15.47096
|134>    H       -0.13163         9.08655         0.22964
|135>    H       -0.84716         8.63833        -1.32461
|136>    H       -2.24060         8.44602         1.38623
|137>    H       -2.55315         9.64688         0.13203
|138>    H       -2.94523         7.95121        -0.15401
|139>    H       -8.63834         0.10473        -6.74483
|140>    H      -10.11872        -1.66612        -5.88628
|141>    H       -9.95878        -2.38838        -3.53668
|142>    H       -8.31595        -1.34338        -2.02692
|143>    H       -3.35558        11.47605        23.35105
|144>    H       -4.35935        10.08127        25.11510
|145>    H       -4.78961         7.68936        24.71372
|146>    H       -4.21866         6.67336        22.54301
|147> *
|148>
|149>                          ****END OF INPUT****

CARTESIAN COORDINATES (ANGSTROEM)
---------------------------------
  C     -4.745510    2.369830   -2.486320
  O     -4.405810    2.253060   -1.319800
  C     -5.781220    1.581630   -3.173000
  C     -6.583450    0.599920   -2.670210
  C     -7.530700   -0.015870   -3.519640
  C     -7.621750    0.402480   -4.877700
  C     -6.772200    1.421660   -5.369630
  C     -5.862600    2.005720   -4.529830
  C     -4.879690    3.065970   -4.743380
  C     -4.645780    3.691760   -5.943840
  C     -3.690870    4.700860   -6.177490
  N     -2.936960    5.523480   -6.454610
  C     -5.338010    3.397340   -7.135840
  N     -5.860740    3.212020   -8.141770
  C     -4.217930    3.308370   -3.479370
  C     -3.284400    4.289630   -3.235420
  C     -2.153390    8.366160   18.120920
  O     -2.226120    7.247980   17.645100
  C     -2.570830    8.732530   19.485020
  C     -3.121280    7.933060   20.443890
  C     -3.456730    8.493100   21.696780
  C     -3.207580    9.876140   21.927170
  C     -2.633830   10.677320   20.912520
  C     -2.320300   10.114670   19.703830
  C     -1.743710   10.675660   18.485330
  C     -1.417530   11.999860   18.321560
  C     -0.905240   12.610100   17.158250
  N     -0.497240   13.204820   16.262950
  C     -1.568390   12.979470   19.325130
  N     -1.658830   13.833370   20.088180
  C     -1.629120    9.605560   17.509660
  C     -1.084200    9.782440   16.259640
  C     -0.962250    8.920470   15.161810
  S     -0.193320    9.604990   13.719730
  C     -0.466830    8.150910   12.872370
  C     -1.097200    7.171360   13.659930
  C     -1.379990    7.608580   14.936230
  C     -0.306030    7.647290   11.564760
  C     -0.835420    6.359690   11.502680
  C     -1.335820    5.915720   12.856060
  S      0.270440    8.190340   10.041880
  C     -0.214250    6.672200    9.303080
  C     -0.778240    5.811910   10.226840
  C     -0.097590    6.487640    7.879310
  C     -0.226690    5.227770    7.262200
  C     -0.294660    5.158020    5.885030
  C     -0.188590    6.278460    5.060980
  C      0.059500    7.531180    5.674330
  C      0.079560    7.604090    7.054930
  C     -0.388590    6.136060    3.640910
  S     -1.349320    4.783600    3.070830
  C     -1.215080    5.352180    1.458680
  C     -0.445310    6.510070    1.366890
  C      0.018470    6.951280    2.601770
  C     -1.710870    5.010380    0.183110
  C     -1.236870    5.958820   -0.744100
  C     -0.335240    6.967940   -0.069700
  S     -2.776040    3.856760   -0.488440
  C     -2.624020    4.642780   -2.056310
  C     -1.753680    5.746870   -1.998490
  O     -0.321000    4.054820    7.979690
  C      1.136890    6.807330   -0.509440
  C      1.399090    7.080000   -1.984280
  C     -2.819710    5.520010   12.828560
  C     -3.702720    6.595140   12.205660
  O      0.197800    8.600140    4.851250
  C      0.409220    9.896120    5.382880
  C      1.848060   10.123360    5.836320
  C      0.902880    3.599830    8.541080
  C      1.898250    3.138110    7.483430
  C     -0.440380    4.751800   13.337640
  C     -0.734330    4.260620   14.748550
  C     -0.834110    8.408190   -0.258880
  C     -2.230220    8.624490    0.313460
  C     -8.571850   -0.215400   -5.715270
  C     -9.393650   -1.199510   -5.236260
  C     -9.302790   -1.610670   -3.898650
  C     -8.390620   -1.031230   -3.058530
  C     -3.545460   10.426470   23.180100
  C     -4.103440    9.649820   24.158900
  C     -4.348710    8.287830   23.930380
  C     -4.032110    7.721810   22.725240
  H     -6.500180    0.298720   -1.636400
  H     -6.869380    1.714970   -6.402670
  H     -3.021660    4.924440   -4.073140
  H     -3.300970    6.886290   20.247580
  H     -2.458330   11.719780   21.123470
  H     -0.685380   10.770080   16.061070
  H     -1.880700    7.041680   15.698980
  H     -1.165550    4.848190    9.953360
  H     -0.441080    4.186690    5.437050
  H      0.194840    8.558860    7.543250
  H      0.623640    7.823660    2.754860
  H     -1.563020    6.351140   -2.867930
  H      1.742880    7.482610    0.098670
  H      1.446330    5.784920   -0.278190
  H      1.148610    8.103350   -2.249200
  H      2.454300    6.925410   -2.198040
  H      0.824690    6.403370   -2.610380
  H     -2.921980    4.591880   12.262680
  H     -3.149870    5.338220   13.851390
  H     -3.425500    6.774390   11.169170
  H     -4.743570    6.282100   12.231700
  H     -3.613350    7.530820   12.753280
  H      0.175390   10.564440    4.549050
  H     -0.297250   10.102430    6.195090
  H      2.529500    9.946690    5.007840
  H      1.963680   11.149140    6.174500
  H      2.115660    9.453370    6.649270
  H      1.352910    4.386740    9.161640
  H      0.616820    2.763650    9.183810
  H      2.189210    3.970610    6.845970
  H      2.785020    2.738570    7.967400
  H      1.453570    2.363520    6.863910
  H     -0.558470    3.926050   12.632150
  H      0.599640    5.085210   13.286630
  H     -1.735990    3.847030   14.822500
  H     -0.026320    3.477780   15.011590
  H     -0.634230    5.065350   15.470960
  H     -0.131630    9.086550    0.229640
  H     -0.847160    8.638330   -1.324610
  H     -2.240600    8.446020    1.386230
  H     -2.553150    9.646880    0.132030
  H     -2.945230    7.951210   -0.154010
  H     -8.638340    0.104730   -6.744830
  H    -10.118720   -1.666120   -5.886280
  H     -9.958780   -2.388380   -3.536680
  H     -8.315950   -1.343380   -2.026920
  H     -3.355580   11.476050   23.351050
  H     -4.359350   10.081270   25.115100
  H     -4.789610    7.689360   24.713720
  H     -4.218660    6.673360   22.543010

 Total Charge           Charge          ....    0
 Multiplicity           Mult            ....    1
 Number of Electrons    NEL             ....  594
 Basis Dimension        Dim             .... 1414

ORBITAL ENERGIES
----------------

  NO   OCC          E(Eh)            E(eV)
   0   2.0000     -88.997033     -2421.7324
   1   2.0000     -88.996953     -2421.7302
   2   2.0000     -88.987187     -2421.4645
   3   2.0000     -88.986615     -2421.4489
   4   2.0000     -19.294430      -525.0281
   5   2.0000     -19.273728      -524.4648
   6   2.0000     -19.245470      -523.6959
   7   2.0000     -19.243470      -523.6414
   8   2.0000     -14.442199      -392.9922
   9   2.0000     -14.440135      -392.9360
  10   2.0000     -14.438013      -392.8783
  11   2.0000     -14.435627      -392.8134
  12   2.0000     -10.394890      -282.8593
  13   2.0000     -10.390060      -282.7279
  14   2.0000     -10.381488      -282.4946
  15   2.0000     -10.368910      -282.1524
  16   2.0000     -10.368420      -282.1390
  17   2.0000     -10.366168      -282.0778
  18   2.0000     -10.365566      -282.0614
  19   2.0000     -10.362989      -281.9913
  20   2.0000     -10.360078      -281.9120
  21   2.0000     -10.359719      -281.9023
  22   2.0000     -10.355752      -281.7944
  23   2.0000     -10.354248      -281.7534
  24   2.0000     -10.352557      -281.7074
  25   2.0000     -10.347901      -281.5807
  26   2.0000     -10.346604      -281.5454
  27   2.0000     -10.345916      -281.5267
  28   2.0000     -10.344962      -281.5007
  29   2.0000     -10.344390      -281.4852
  30   2.0000     -10.344108      -281.4775
  31   2.0000     -10.342238      -281.4266
  32   2.0000     -10.340442      -281.3777
  33   2.0000     -10.340352      -281.3753
  34   2.0000     -10.338117      -281.3145
  35   2.0000     -10.335661      -281.2476
  36   2.0000     -10.334890      -281.2267
  37   2.0000     -10.331130      -281.1243
  38   2.0000     -10.329800      -281.0882
  39   2.0000     -10.328475      -281.0521
  40   2.0000     -10.327655      -281.0298
  41   2.0000     -10.326283      -280.9924
  42   2.0000     -10.325275      -280.9650
  43   2.0000     -10.324751      -280.9508
  44   2.0000     -10.324316      -280.9389
  45   2.0000     -10.322988      -280.9028
  46   2.0000     -10.322871      -280.8996
  47   2.0000     -10.322557      -280.8911
  48   2.0000     -10.322310      -280.8843
  49   2.0000     -10.322166      -280.8804
  50   2.0000     -10.320891      -280.8457
  51   2.0000     -10.320766      -280.8423
  52   2.0000     -10.320562      -280.8368
  53   2.0000     -10.320071      -280.8234
  54   2.0000     -10.318414      -280.7783
  55   2.0000     -10.316183      -280.7176
  56   2.0000     -10.315330      -280.6944
  57   2.0000     -10.315093      -280.6879
  58   2.0000     -10.314580      -280.6740
  59   2.0000     -10.313912      -280.6558
  60   2.0000     -10.313853      -280.6542
  61   2.0000     -10.313796      -280.6527
  62   2.0000     -10.313276      -280.6385
  63   2.0000     -10.312823      -280.6262
  64   2.0000     -10.312295      -280.6118
  65   2.0000     -10.311971      -280.6030
  66   2.0000     -10.311739      -280.5967
  67   2.0000     -10.311216      -280.5825
  68   2.0000     -10.310799      -280.5711
  69   2.0000     -10.310469      -280.5621
  70   2.0000     -10.310268      -280.5567
  71   2.0000     -10.308841      -280.5178
  72   2.0000     -10.306740      -280.4606
  73   2.0000     -10.304880      -280.4100
  74   2.0000     -10.304853      -280.4093
  75   2.0000     -10.303650      -280.3766
  76   2.0000     -10.302978      -280.3583
  77   2.0000     -10.294273      -280.1214
  78   2.0000     -10.288044      -279.9519
  79   2.0000     -10.287880      -279.9474
  80   2.0000     -10.285108      -279.8720
  81   2.0000     -10.283201      -279.8201
  82   2.0000      -8.110531      -220.6988
  83   2.0000      -8.109993      -220.6841
  84   2.0000      -8.100679      -220.4307
  85   2.0000      -8.098090      -220.3602
  86   2.0000      -6.069899      -165.1703
  87   2.0000      -6.069536      -165.1605
  88   2.0000      -6.065878      -165.0609
  89   2.0000      -6.065496      -165.0505
  90   2.0000      -6.062960      -164.9815
  91   2.0000      -6.062302      -164.9636
  92   2.0000      -6.060191      -164.9062
  93   2.0000      -6.057807      -164.8413
  94   2.0000      -6.056094      -164.7947
  95   2.0000      -6.053097      -164.7131
  96   2.0000      -6.052939      -164.7089
  97   2.0000      -6.050450      -164.6411
  98   2.0000      -1.200814       -32.6758
  99   2.0000      -1.179961       -32.1084
 100   2.0000      -1.161756       -31.6130
 101   2.0000      -1.160926       -31.5904
 102   2.0000      -1.061130       -28.8748
 103   2.0000      -1.053296       -28.6616
 104   2.0000      -1.047524       -28.5046
 105   2.0000      -1.044765       -28.4295
 106   2.0000      -1.028982       -28.0000
 107   2.0000      -1.026637       -27.9362
 108   2.0000      -1.024981       -27.8911
 109   2.0000      -1.020968       -27.7820
 110   2.0000      -1.019088       -27.7308
 111   2.0000      -1.017463       -27.6866
 112   2.0000      -1.002767       -27.2867
 113   2.0000      -1.000505       -27.2251
 114   2.0000      -0.997279       -27.1373
 115   2.0000      -0.976481       -26.5714
 116   2.0000      -0.967168       -26.3180
 117   2.0000      -0.954446       -25.9718
 118   2.0000      -0.951380       -25.8884
 119   2.0000      -0.936346       -25.4793
 120   2.0000      -0.932524       -25.3753
 121   2.0000      -0.928331       -25.2612
 122   2.0000      -0.916775       -24.9467
 123   2.0000      -0.912687       -24.8355
 124   2.0000      -0.911133       -24.7932
 125   2.0000      -0.909144       -24.7391
 126   2.0000      -0.905360       -24.6361
 127   2.0000      -0.892967       -24.2989
 128   2.0000      -0.888754       -24.1842
 129   2.0000      -0.880605       -23.9625
 130   2.0000      -0.879539       -23.9335
 131   2.0000      -0.877777       -23.8855
 132   2.0000      -0.877549       -23.8793
 133   2.0000      -0.874725       -23.8025
 134   2.0000      -0.873520       -23.7697
 135   2.0000      -0.867855       -23.6155
 136   2.0000      -0.858875       -23.3712
 137   2.0000      -0.856668       -23.3111
 138   2.0000      -0.855412       -23.2770
 139   2.0000      -0.846884       -23.0449
 140   2.0000      -0.838076       -22.8052
 141   2.0000      -0.816764       -22.2253
 142   2.0000      -0.802011       -21.8238
 143   2.0000      -0.798611       -21.7313
 144   2.0000      -0.791536       -21.5388
 145   2.0000      -0.789739       -21.4899
 146   2.0000      -0.788585       -21.4585
 147   2.0000      -0.782157       -21.2836
 148   2.0000      -0.772185       -21.0122
 149   2.0000      -0.751963       -20.4619
 150   2.0000      -0.746272       -20.3071
 151   2.0000      -0.736388       -20.0381
 152   2.0000      -0.733906       -19.9706
 153   2.0000      -0.733327       -19.9549
 154   2.0000      -0.732531       -19.9332
 155   2.0000      -0.731577       -19.9072
 156   2.0000      -0.728604       -19.8263
 157   2.0000      -0.725873       -19.7520
 158   2.0000      -0.721260       -19.6265
 159   2.0000      -0.718397       -19.5486
 160   2.0000      -0.714627       -19.4460
 161   2.0000      -0.707137       -19.2422
 162   2.0000      -0.702164       -19.1069
 163   2.0000      -0.690684       -18.7945
 164   2.0000      -0.683982       -18.6121
 165   2.0000      -0.676230       -18.4012
 166   2.0000      -0.669936       -18.2299
 167   2.0000      -0.669546       -18.2193
 168   2.0000      -0.665834       -18.1183
 169   2.0000      -0.663860       -18.0646
 170   2.0000      -0.662108       -18.0169
 171   2.0000      -0.658019       -17.9056
 172   2.0000      -0.654370       -17.8063
 173   2.0000      -0.645818       -17.5736
 174   2.0000      -0.638387       -17.3714
 175   2.0000      -0.634430       -17.2637
 176   2.0000      -0.632218       -17.2035
 177   2.0000      -0.629600       -17.1323
 178   2.0000      -0.628145       -17.0927
 179   2.0000      -0.620558       -16.8862
 180   2.0000      -0.611640       -16.6436
 181   2.0000      -0.608809       -16.5665
 182   2.0000      -0.600327       -16.3357
 183   2.0000      -0.597623       -16.2621
 184   2.0000      -0.596956       -16.2440
 185   2.0000      -0.593543       -16.1511
 186   2.0000      -0.586155       -15.9501
 187   2.0000      -0.583500       -15.8778
 188   2.0000      -0.582002       -15.8371
 189   2.0000      -0.579108       -15.7583
 190   2.0000      -0.576260       -15.6808
 191   2.0000      -0.574230       -15.6256
 192   2.0000      -0.573576       -15.6078
 193   2.0000      -0.572484       -15.5781
 194   2.0000      -0.570991       -15.5375
 195   2.0000      -0.569363       -15.4932
 196   2.0000      -0.566013       -15.4020
 197   2.0000      -0.564489       -15.3605
 198   2.0000      -0.562638       -15.3102
 199   2.0000      -0.562100       -15.2955
 200   2.0000      -0.560405       -15.2494
 201   2.0000      -0.557262       -15.1639
 202   2.0000      -0.555983       -15.1291
 203   2.0000      -0.554562       -15.0904
 204   2.0000      -0.554024       -15.0757
 205   2.0000      -0.547853       -14.9078
 206   2.0000      -0.544405       -14.8140
 207   2.0000      -0.543338       -14.7850
 208   2.0000      -0.541630       -14.7385
 209   2.0000      -0.541158       -14.7256
 210   2.0000      -0.537493       -14.6259
 211   2.0000      -0.535776       -14.5792
 212   2.0000      -0.533424       -14.5152
 213   2.0000      -0.532465       -14.4891
 214   2.0000      -0.531858       -14.4726
 215   2.0000      -0.528449       -14.3798
 216   2.0000      -0.525973       -14.3124
 217   2.0000      -0.524588       -14.2748
 218   2.0000      -0.522469       -14.2171
 219   2.0000      -0.521512       -14.1911
 220   2.0000      -0.521064       -14.1789
 221   2.0000      -0.518853       -14.1187
 222   2.0000      -0.518107       -14.0984
 223   2.0000      -0.513636       -13.9767
 224   2.0000      -0.509465       -13.8632
 225   2.0000      -0.508266       -13.8306
 226   2.0000      -0.506385       -13.7794
 227   2.0000      -0.503510       -13.7012
 228   2.0000      -0.502528       -13.6745
 229   2.0000      -0.499256       -13.5854
 230   2.0000      -0.497011       -13.5243
 231   2.0000      -0.495064       -13.4714
 232   2.0000      -0.493525       -13.4295
 233   2.0000      -0.492411       -13.3992
 234   2.0000      -0.489462       -13.3189
 235   2.0000      -0.488731       -13.2990
 236   2.0000      -0.484910       -13.1951
 237   2.0000      -0.482132       -13.1195
 238   2.0000      -0.481709       -13.1080
 239   2.0000      -0.481309       -13.0971
 240   2.0000      -0.477369       -12.9899
 241   2.0000      -0.475064       -12.9271
 242   2.0000      -0.473556       -12.8861
 243   2.0000      -0.473391       -12.8816
 244   2.0000      -0.470636       -12.8066
 245   2.0000      -0.470152       -12.7935
 246   2.0000      -0.468529       -12.7493
 247   2.0000      -0.467660       -12.7257
 248   2.0000      -0.464645       -12.6436
 249   2.0000      -0.464335       -12.6352
 250   2.0000      -0.463785       -12.6202
 251   2.0000      -0.460724       -12.5369
 252   2.0000      -0.460457       -12.5297
 253   2.0000      -0.458692       -12.4816
 254   2.0000      -0.457958       -12.4617
 255   2.0000      -0.457668       -12.4538
 256   2.0000      -0.454725       -12.3737
 257   2.0000      -0.452502       -12.3132
 258   2.0000      -0.451938       -12.2979
 259   2.0000      -0.451028       -12.2731
 260   2.0000      -0.450534       -12.2597
 261   2.0000      -0.448907       -12.2154
 262   2.0000      -0.447094       -12.1660
 263   2.0000      -0.442215       -12.0333
 264   2.0000      -0.440562       -11.9883
 265   2.0000      -0.439591       -11.9619
 266   2.0000      -0.437340       -11.9006
 267   2.0000      -0.433004       -11.7826
 268   2.0000      -0.431024       -11.7288
 269   2.0000      -0.430293       -11.7089
 270   2.0000      -0.429627       -11.6907
 271   2.0000      -0.428030       -11.6473
 272   2.0000      -0.427883       -11.6433
 273   2.0000      -0.424572       -11.5532
 274   2.0000      -0.423632       -11.5276
 275   2.0000      -0.420396       -11.4396
 276   2.0000      -0.414101       -11.2683
 277   2.0000      -0.407843       -11.0980
 278   2.0000      -0.402580       -10.9548
 279   2.0000      -0.395236       -10.7549
 280   2.0000      -0.388195       -10.5633
 281   2.0000      -0.381267       -10.3748
 282   2.0000      -0.367397        -9.9974
 283   2.0000      -0.363570        -9.8932
 284   2.0000      -0.360305        -9.8044
 285   2.0000      -0.359361        -9.7787
 286   2.0000      -0.355391        -9.6707
 287   2.0000      -0.354872        -9.6566
 288   2.0000      -0.350281        -9.5316
 289   2.0000      -0.342396        -9.3171
 290   2.0000      -0.338750        -9.2178
 291   2.0000      -0.337338        -9.1794
 292   2.0000      -0.323079        -8.7914
 293   2.0000      -0.317035        -8.6270
 294   2.0000      -0.312319        -8.4986
 295   2.0000      -0.282832        -7.6963
 296   2.0000      -0.262189        -7.1345
 297   0.0000      -0.071478        -1.9450
 298   0.0000      -0.061904        -1.6845
 299   0.0000      -0.029957        -0.8152
 300   0.0000      -0.024574        -0.6687
 301   0.0000      -0.014672        -0.3993

MULLIKEN ATOMIC CHARGES
-----------------------
   0 C :    0.237937
   1 O :   -0.215318
   2 C :   -0.053278
   3 C :   -0.052087
   4 C :    0.047122
   5 C :    0.041812
   6 C :   -0.054773
   7 C :    0.024737
   8 C :    0.308381
   9 C :   -0.391771
  10 C :   -0.128004
  11 N :    0.084790
  12 C :   -0.125176
  13 N :    0.093861
  14 C :   -0.155525
  15 C :    0.001334
  16 C :    0.230950
  17 O :   -0.201717
  18 C :   -0.047744
  19 C :   -0.058037
  20 C :    0.051204
  21 C :    0.045489
  22 C :   -0.058103
  23 C :    0.029435
  24 C :    0.304112
  25 C :   -0.399506
  26 C :   -0.128182
  27 N :    0.095494
  28 C :   -0.122841
  29 N :    0.091690
  30 C :   -0.147056
  31 C :    0.067136
  32 C :   -0.160676
  33 S :    0.175129
  34 C :   -0.050356
  35 C :   -0.021120
  36 C :    0.004106
  37 C :   -0.082729
  38 C :    0.015407
  39 C :   -0.189469
  40 S :    0.131213
  41 C :   -0.121306
  42 C :   -0.042422
  43 C :    0.109697
  44 C :    0.111085
  45 C :   -0.072067
  46 C :    0.049735
  47 C :    0.247814
  48 C :   -0.176437
  49 C :   -0.095017
  50 S :    0.149083
  51 C :   -0.090909
  52 C :    0.004101
  53 C :   -0.014978
  54 C :   -0.039288
  55 C :    0.021360
  56 C :   -0.183312
  57 S :    0.218406
  58 C :   -0.093308
  59 C :   -0.060279
  60 O :   -0.373228
  61 C :    0.038435
  62 C :   -0.017264
  63 C :    0.012169
  64 C :   -0.018245
  65 O :   -0.343956
  66 C :    0.121898
  67 C :   -0.073079
  68 C :    0.133545
  69 C :   -0.066643
  70 C :    0.034546
  71 C :   -0.019449
  72 C :    0.012823
  73 C :   -0.019616
  74 C :   -0.022949
  75 C :    0.003773
  76 C :    0.005057
  77 C :   -0.021805
  78 C :   -0.025501
  79 C :    0.006378
  80 C :    0.005917
  81 C :   -0.023522
  82 H :    0.011642
  83 H :    0.013564
  84 H :    0.024599
  85 H :    0.010118
  86 H :    0.014268
  87 H :    0.021045
  88 H :    0.042639
  89 H :    0.028057
  90 H :    0.007283
  91 H :   -0.000873
  92 H :    0.006717
  93 H :    0.030218
  94 H :    0.022500
  95 H :    0.032276
  96 H :    0.029671
  97 H :    0.040294
  98 H :    0.035052
  99 H :    0.027619
 100 H :    0.041230
 101 H :    0.039699
 102 H :    0.037104
 103 H :    0.039413
 104 H :    0.049466
 105 H :    0.042209
 106 H :    0.049152
 107 H :    0.050271
 108 H :    0.044122
 109 H :    0.040734
 110 H :    0.039932
 111 H :    0.047783
 112 H :    0.042067
 113 H :    0.045354
 114 H :    0.022576
 115 H :    0.029240
 116 H :    0.031459
 117 H :    0.038458
 118 H :    0.044722
 119 H :    0.023154
 120 H :    0.034809
 121 H :    0.042824
 122 H :    0.034261
 123 H :    0.040113
 124 H :    0.018317
 125 H :    0.022679
 126 H :    0.021654
 127 H :    0.008667
 128 H :    0.019412
 129 H :    0.022102
 130 H :    0.022649
 131 H :    0.008564
Sum of atomic charges:    0.0000000

LOEWDIN ATOMIC CHARGES
----------------------
   0 C :    0.091124
   1 O :   -0.180129
   2 C :   -0.057921
   3 C :    0.029489
   4 C :   -0.013989
   5 C :   -0.012063
   6 C :    0.020534
   7 C :   -0.028700
   8 C :    0.083652
   9 C :   -0.161915
  10 C :   -0.014581
  11 N :   -0.069749
  12 C :   -0.012050
  13 N :   -0.068259
  14 C :   -0.134484
  15 C :    0.063453
  16 C :    0.096448
  17 O :   -0.161742
  18 C :   -0.058814
  19 C :    0.029351
  20 C :   -0.013650
  21 C :   -0.011666
  22 C :    0.020785
  23 C :   -0.029922
  24 C :    0.082642
  25 C :   -0.159288
  26 C :   -0.018718
  27 N :   -0.063557
  28 C :   -0.010892
  29 N :   -0.067062
  30 C :   -0.122440
  31 C :    0.055488
  32 C :   -0.188092
  33 S :    0.454445
  34 C :   -0.157908
  35 C :   -0.050068
  36 C :   -0.000000
  37 C :   -0.210264
  38 C :   -0.018572
  39 C :   -0.038285
  40 S :    0.432787
  41 C :   -0.144628
  42 C :   -0.052013
  43 C :   -0.052971
  44 C :    0.039172
  45 C :   -0.029387
  46 C :   -0.062709
  47 C :    0.067914
  48 C :   -0.071222
  49 C :   -0.141355
  50 S :    0.441452
  51 C :   -0.211618
  52 C :   -0.020981
  53 C :   -0.053996
  54 C :   -0.163623
  55 C :   -0.053305
  56 C :   -0.038411
  57 S :    0.507972
  58 C :   -0.195533
  59 C :   -0.009890
  60 O :   -0.136542
  61 C :   -0.012238
  62 C :   -0.060599
  63 C :   -0.016666
  64 C :   -0.057705
  65 O :   -0.094101
  66 C :    0.079363
  67 C :   -0.074716
  68 C :    0.078928
  69 C :   -0.075013
  70 C :   -0.011795
  71 C :   -0.060239
  72 C :   -0.018114
  73 C :   -0.058424
  74 C :   -0.007464
  75 C :   -0.019117
  76 C :   -0.017562
  77 C :   -0.013078
  78 C :   -0.007197
  79 C :   -0.018428
  80 C :   -0.017083
  81 C :   -0.013150
  82 H :    0.040941
  83 H :    0.040181
  84 H :    0.051258
  85 H :    0.040238
  86 H :    0.040338
  87 H :    0.043436
  88 H :    0.035600
  89 H :    0.037133
  90 H :    0.030756
  91 H :    0.018703
  92 H :    0.031276
  93 H :    0.039840
  94 H :    0.022990
  95 H :    0.030059
  96 H :    0.023667
  97 H :    0.032183
  98 H :    0.026233
  99 H :    0.025383
 100 H :    0.027693
 101 H :    0.026729
 102 H :    0.029205
 103 H :    0.027575
 104 H :    0.030245
 105 H :    0.017213
 106 H :    0.033374
 107 H :    0.037664
 108 H :    0.027863
 109 H :    0.012676
 110 H :    0.023822
 111 H :    0.029422
 112 H :    0.034552
 113 H :    0.030203
 114 H :    0.022754
 115 H :    0.028795
 116 H :    0.024802
 117 H :    0.031466
 118 H :    0.030427
 119 H :    0.023712
 120 H :    0.024802
 121 H :    0.027874
 122 H :    0.027683
 123 H :    0.027933
 124 H :    0.037138
 125 H :    0.035192
 126 H :    0.034613
 127 H :    0.033681
 128 H :    0.037479
 129 H :    0.035236
 130 H :    0.034921
 131 H :    0.033693

  Mayer bond orders larger than 0.100000
B(  0-C ,  1-O ) :   2.1057 B(  0-C ,  2-C ) :   0.9618 B(  0-C , 14-C ) :   0.9919
B(  2-C ,  3-C ) :   1.5143 B(  2-C ,  7-C ) :   1.2101 B(  3-C ,  4-C ) :   1.1862
B(  3-C , 82-H ) :   1.0117 B(  4-C ,  5-C ) :   1.2647 B(  4-C , 77-C ) :   1.2513
B(  5-C ,  6-C ) :   1.2109 B(  5-C , 74-C ) :   1.2519 B(  6-C ,  7-C ) :   1.4960
B(  6-C , 83-H ) :   0.9868 B(  7-C ,  8-C ) :   0.9973 B(  8-C ,  9-C ) :   1.6093
B(  8-C , 14-C ) :   1.1110 B(  9-C , 10-C ) :   1.1362 B(  9-C , 12-C ) :   1.1401
B( 10-C , 11-N ) :   2.9509 B( 12-C , 13-N ) :   2.9572 B( 14-C , 15-C ) :   1.4745
B( 15-C , 58-C ) :   1.3302 B( 15-C , 84-H ) :   0.9399 B( 16-C , 17-O ) :   2.1259
B( 16-C , 18-C ) :   0.9599 B( 16-C , 30-C ) :   0.9559 B( 18-C , 19-C ) :   1.5097
B( 18-C , 23-C ) :   1.2162 B( 19-C , 20-C ) :   1.1859 B( 19-C , 85-H ) :   1.0124
B( 20-C , 21-C ) :   1.2684 B( 20-C , 81-C ) :   1.2494 B( 21-C , 22-C ) :   1.2157
B( 21-C , 78-C ) :   1.2467 B( 22-C , 23-C ) :   1.4853 B( 22-C , 86-H ) :   0.9876
B( 23-C , 24-C ) :   0.9950 B( 24-C , 25-C ) :   1.6044 B( 24-C , 30-C ) :   1.1125
B( 25-C , 26-C ) :   1.1336 B( 25-C , 28-C ) :   1.1430 B( 26-C , 27-N ) :   2.9527
B( 28-C , 29-N ) :   2.9549 B( 30-C , 31-C ) :   1.5659 B( 31-C , 32-C ) :   1.2806
B( 31-C , 87-H ) :   0.9073 B( 32-C , 33-S ) :   1.0728 B( 32-C , 36-C ) :   1.3687
B( 33-S , 34-C ) :   1.1465 B( 34-C , 35-C ) :   1.4454 B( 34-C , 37-C ) :   1.2171
B( 35-C , 36-C ) :   1.3814 B( 35-C , 39-C ) :   0.9181 B( 36-C , 88-H ) :   0.9726
B( 37-C , 38-C ) :   1.5192 B( 37-C , 40-S ) :   1.0744 B( 38-C , 39-C ) :   0.9387
B( 38-C , 42-C ) :   1.2993 B( 39-C , 63-C ) :   1.0301 B( 39-C , 70-C ) :   1.0130
B( 40-S , 41-C ) :   1.1242 B( 41-C , 42-C ) :   1.4892 B( 41-C , 43-C ) :   1.0731
B( 42-C , 89-H ) :   1.0027 B( 43-C , 44-C ) :   1.3330 B( 43-C , 48-C ) :   1.2971
B( 44-C , 45-C ) :   1.4054 B( 44-C , 60-O ) :   1.0750 B( 45-C , 46-C ) :   1.3040
B( 45-C , 90-H ) :   0.9957 B( 46-C , 47-C ) :   1.3432 B( 46-C , 49-C ) :   1.0693
B( 47-C , 48-C ) :   1.3425 B( 47-C , 65-O ) :   1.1411 B( 48-C , 91-H ) :   0.9763
B( 49-C , 50-S ) :   1.1329 B( 49-C , 53-C ) :   1.4893 B( 50-S , 51-C ) :   1.0777
B( 51-C , 52-C ) :   1.5161 B( 51-C , 54-C ) :   1.2225 B( 52-C , 53-C ) :   1.2986
B( 52-C , 56-C ) :   0.9386 B( 53-C , 92-H ) :   1.0079 B( 54-C , 55-C ) :   1.4207
B( 54-C , 57-S ) :   1.1132 B( 55-C , 56-C ) :   0.9114 B( 55-C , 59-C ) :   1.4142
B( 56-C , 61-C ) :   1.0147 B( 56-C , 72-C ) :   1.0301 B( 57-S , 58-C ) :   1.0627
B( 58-C , 59-C ) :   1.3075 B( 59-C , 93-H ) :   1.0109 B( 60-O , 68-C ) :   0.9148
B( 61-C , 62-C ) :   1.0976 B( 61-C , 94-H ) :   0.9450 B( 61-C , 95-H ) :   0.9473
B( 62-C , 96-H ) :   0.9674 B( 62-C , 97-H ) :   0.9675 B( 62-C , 98-H ) :   0.9672
B( 63-C , 64-C ) :   1.0909 B( 63-C , 99-H ) :   0.9483 B( 63-C ,100-H ) :   0.9465
B( 64-C ,101-H ) :   0.9657 B( 64-C ,102-H ) :   0.9705 B( 64-C ,103-H ) :   0.9696
B( 65-O , 66-C ) :   0.9199 B( 66-C , 67-C ) :   1.0941 B( 66-C ,104-H ) :   0.9604
B( 66-C ,105-H ) :   0.9538 B( 67-C ,106-H ) :   0.9667 B( 67-C ,107-H ) :   0.9668
B( 67-C ,108-H ) :   0.9691 B( 68-C , 69-C ) :   1.0948 B( 68-C ,109-H ) :   0.9517
B( 68-C ,110-H ) :   0.9633 B( 69-C ,111-H ) :   0.9684 B( 69-C ,112-H ) :   0.9653
B( 69-C ,113-H ) :   0.9677 B( 70-C , 71-C ) :   1.0966 B( 70-C ,114-H ) :   0.9451
B( 70-C ,115-H ) :   0.9475 B( 71-C ,116-H ) :   0.9669 B( 71-C ,117-H ) :   0.9670
B( 71-C ,118-H ) :   0.9674 B( 72-C , 73-C ) :   1.0894 B( 72-C ,119-H ) :   0.9481
B( 72-C ,120-H ) :   0.9473 B( 73-C ,121-H ) :   0.9659 B( 73-C ,122-H ) :   0.9709
B( 73-C ,123-H ) :   0.9695 B( 74-C , 75-C ) :   1.5024 B( 74-C ,124-H ) :   0.9962
B( 75-C , 76-C ) :   1.2662 B( 75-C ,125-H ) :   0.9901 B( 76-C , 77-C ) :   1.5026
B( 76-C ,126-H ) :   0.9908 B( 77-C ,127-H ) :   0.9977 B( 78-C , 79-C ) :   1.5062
B( 78-C ,128-H ) :   0.9969 B( 79-C , 80-C ) :   1.2666 B( 79-C ,129-H ) :   0.9889
B( 80-C , 81-C ) :   1.5047 B( 80-C ,130-H ) :   0.9891 B( 81-C ,131-H ) :   0.9981

-----------------------------------------------------------------------------
         ABSORPTION SPECTRUM VIA TRANSITION ELECTRIC DIPOLE MOMENTS
-----------------------------------------------------------------------------
State   Energy  Wavelength   fosc         T2         TX        TY        TZ
        (cm-1)    (nm)                  (au**2)     (au)      (au)      (au)
-----------------------------------------------------------------------------
   0   18936.5    528.1   4.063093748  70.63695  -1.18258  -2.96018  -7.77662
   1   24095.0    415.0   0.482512260   6.59260  -2.54343   0.32162   0.14189
   2   30565.0    327.2   0.002330250   0.02510   0.00160  -0.03962  -0.15338
   3   31005.6    322.5   0.029458501   0.31278  -0.10135   0.19753   0.51332
   4   31760.2    314.9   0.048976741   0.50767  -0.05170  -0.44027   0.55782
   5   33055.2    302.5   0.127441816   1.26925   0.65278   0.90919  -0.12849
   6   33093.7    302.2   0.720390112   7.16634   1.60843   1.54660  -1.47896
   7   34329.8    291.3   0.348382742   3.34088  -1.16290  -1.40967   0.03712
   8   35149.4    284.5   0.102293698   0.95809  -0.44642  -0.48966   0.72044
   9   35364.2    282.8   0.162970495   1.51712   0.30078   0.44128   1.10992
  10   35641.0    280.6   0.003285382   0.03035  -0.10955  -0.12195  -0.05894
  11   36251.6    275.8   0.048989936   0.44489   0.28475   0.18420   0.57435
  12   38441.6    260.1   0.049048609   0.42005  -0.31327   0.35280  -0.44434
  13   39200.0    255.1   0.154173798   1.29479   0.33651   0.78115  -0.75588
  14   39526.7    253.0   0.575054593   4.78954   1.03012   1.50227  -1.21308
  15   39650.9    252.2   0.092650535   0.76926   0.28256   0.52695  -0.64167
  16   40181.9    248.9   0.063535696   0.52055   0.46115   0.35718  -0.42463

Dispersion correction           -0.079841997
FINAL SINGLE POINT ENERGY     -4806.425442363639

DIPOLE MOMENT
-------------
                                X             Y             Z
Electronic contribution:    -22.12507       7.78525      -2.96299
Nuclear contribution   :     22.48671     -10.21318       5.28776
                        -----------------------------------------
Total Dipole Moment    :      0.36164      -2.42793       2.32477
                        -----------------------------------------
Magnitude (a.u.)       :      3.38085
Magnitude (Debye)      :      8.59345

Rotational constants in cm-1:     0.001433     0.000155     0.000147
Rotational constants in MHz :    42.947333     4.648396     4.392704

                             ****ORCA TERMINATED NORMALLY****
TOTAL RUN TIME: 0 days 0 hours 14 minutes 54 seconds 82 msec
