                         Program Version 4.2.0 -  RELEASE  -
|  1> # ORCA input file
|  2> # SCF done       -224.676225425183          0.000428993210
|  3> ! wb97x-d3 def2-SVP def2/J RIJCOSX Grid4 TightSCF
|  4> %maxcore 5000
|  5> %tddft
|  6>     Mode sTDA
|  7>     Ethresh 5.0
|  8>     maxcore 5000
|  9> end
| 10>
| 11> %pal
| 12>   nprocs 6
| 13>   end
| 14> * xyz 0 1
| 15>    C       -0.41070        -2.62024         1.88393
| 16>    O       -1.09397        -1.61355         1.90988
| 17>    C       -0.66219        -3.78888         1.01977
| 18>    C       -1.64859        -3.95877         0.09244
| 19>    C       -1.70178        -5.16376        -0.64269
| 20>    C       -0.72311        -6.16954        -0.39677
| 21>    C        0.28526        -5.96364         0.57401
| 22>    C        0.31482        -4.78827         1.27599
| 23>    C        1.21096        -4.29577         2.31996
| 24>    C        2.22852        -5.03111         2.87652
| 25>    C        3.08633        -4.63218         3.92245
| 26>    N        3.82581        -4.41315         4.77476
| 27>    C        2.55818        -6.34510         2.48371
| 28>    N        2.88782        -7.41238         2.21642
| 29>    C        0.80177        -2.94549         2.66116
| 30>    C        1.51250        -2.14160         3.52319
| 31>    C        3.33822        18.02077         9.80488
| 32>    O        2.73636        17.00104         9.50878
| 33>    C        2.78027        19.38386         9.82441
| 34>    C        1.51268        19.79443         9.53249
| 35>    C        1.19500        21.16792         9.63060
| 36>    C        2.20579        22.08732        10.03366
| 37>    C        3.51297        21.62999        10.32580
| 38>    C        3.79866        20.29558        10.22093
| 39>    C        5.03036        19.54141        10.45273
| 40>    C        6.23244        20.09568        10.81977
| 41>    C        7.43406        19.39348        11.03995
| 42>    N        8.45310        18.89953        11.23786
| 43>    C        6.43654        21.47565        11.02338
| 44>    N        6.67547        22.58458        11.20317
| 45>    C        4.73878        18.14565        10.21031
| 46>    C        5.62845        17.10292        10.34583
| 47>    C        5.46419        15.73336        10.13456
| 48>    S        4.00215        14.91622         9.59083
| 49>    C        4.82982        13.42213         9.63762
| 50>    C        6.16837        13.52454        10.06844
| 51>    C        6.52014        14.82396        10.33398
| 52>    C        4.57165        12.07424         9.31761
| 53>    C        5.71922        11.31268         9.53091
| 54>    C        6.83987        12.17037        10.07160
| 55>    S        3.27523        11.13191         8.70818
| 56>    C        4.28231         9.68885         8.73303
| 57>    C        5.55182         9.97213         9.20744
| 58>    C        3.73868         8.44680         8.25300
| 59>    C        4.46569         7.23161         8.23471
| 60>    C        3.87321         6.11259         7.68221
| 61>    C        2.58089         6.10520         7.14598
| 62>    C        1.83282         7.30603         7.21527
| 63>    C        2.43184         8.42738         7.75506
| 64>    C        2.08217         4.89858         6.54242
| 65>    S        3.04475         3.42980         6.63219
| 66>    C        1.87631         2.58452         5.70357
| 67>    C        0.78959         3.38923         5.35787
| 68>    C        0.91608         4.69159         5.82578
| 69>    C        1.71723         1.31011         5.12476
| 70>    C        0.51410         1.29342         4.39784
| 71>    C       -0.20679         2.61568         4.52928
| 72>    S        2.56569        -0.16540         5.02351
| 73>    C        1.30274        -0.83281         3.97246
| 74>    C        0.28131         0.09543         3.76010
| 75>    O        5.71782         7.22960         8.75645
| 76>    C       -0.46017         3.27123         3.16323
| 77>    C        0.81287         3.42076         2.33827
| 78>    C        7.16682        11.68619        11.50112
| 79>    C        8.17012        12.54545        12.25826
| 80>    O        0.55344         7.27883         6.75821
| 81>    C       -0.23875         8.45353         6.76097
| 82>    C        0.10053         9.39834         5.61239
| 83>    C        6.45497         6.02049         8.80864
| 84>    C        7.77524         6.32268         9.50086
| 85>    C        8.07761        12.13999         9.16140
| 86>    C        7.74758        12.47165         7.71066
| 87>    C       -1.52386         2.36602         5.29794
| 88>    C       -2.29309         3.62378         5.67896
| 89>    C       -0.77641        -7.36877        -1.13368
| 90>    C       -1.76265        -7.54126        -2.06437
| 91>    C       -2.73422        -6.56450        -2.32018
| 92>    C       -2.69679        -5.39424        -1.61415
| 93>    C        1.88366        23.45433        10.13644
| 94>    C        0.61312        23.86827         9.84701
| 95>    C       -0.39365        22.98026         9.44656
| 96>    C       -0.09786        21.64926         9.34235
| 97>    F        0.30287        25.17467         9.94587
| 98>    F       -1.81559        -8.68701        -2.76994
| 99>    H       -2.37859        -3.18178        -0.07924
|100>    H        1.01014        -6.74541         0.73148
|101>    H        2.41892        -2.57981         3.92397
|102>    H        0.76032        19.08048         9.23231
|103>    H        4.25312        22.35335        10.62698
|104>    H        6.62901        17.36306        10.66957
|105>    H        7.49278        15.16124        10.64616
|106>    H        6.31439         9.22412         9.29464
|107>    H        4.42767         5.18900         7.64026
|108>    H        1.88142         9.35260         7.80218
|109>    H        0.21193         5.47789         5.64074
|110>    H       -0.57013        -0.13342         3.14618
|111>    H       -1.17856         2.65932         2.61489
|112>    H       -0.89808         4.25719         3.32232
|113>    H        1.25612         2.44949         2.13161
|114>    H        0.58694         3.90149         1.38954
|115>    H        1.54501         4.02898         2.86536
|116>    H        6.23215        11.65276        12.06673
|117>    H        7.54597        10.66451        11.42746
|118>    H        7.79810        13.55878        12.37920
|119>    H        8.33129        12.12417        13.24798
|120>    H        9.12834        12.58049        11.74756
|121>    H       -1.26089         8.08157         6.64252
|122>    H       -0.17170         8.96572         7.72744
|123>    H       -0.00276         8.87842         4.66315
|124>    H       -0.57993        10.24485         5.62648
|125>    H        1.12011         9.76598         5.69252
|126>    H        5.89592         5.26276         9.37316
|127>    H        6.63726         5.64436         7.79322
|128>    H        7.59204         6.70681        10.50099
|129>    H        8.36801         5.41574         9.57246
|130>    H        8.33221         7.06597         8.93636
|131>    H        8.80499        12.86189         9.53356
|132>    H        8.52396        11.14493         9.21513
|133>    H        7.29845        13.45937         7.63483
|134>    H        8.65422        12.46095         7.11057
|135>    H        7.05257        11.74550         7.29519
|136>    H       -2.15394         1.72610         4.67711
|137>    H       -1.28220         1.81121         6.20816
|138>    H       -2.58877         4.18910         4.79945
|139>    H       -3.19549         3.34377         6.21781
|140>    H       -1.69639         4.26197         6.32504
|141>    H       -0.04490        -8.14307        -0.96251
|142>    H       -3.48843        -6.75679        -3.06676
|143>    H       -3.43432        -4.62626        -1.79342
|144>    H        2.63423        24.16680        10.44115
|145>    H       -1.37773        23.36481         9.23012
|146>    H       -0.85691        20.94519         9.03602
|147> *
|148>
|149>                          ****END OF INPUT****

CARTESIAN COORDINATES (ANGSTROEM)
---------------------------------
  C     -0.410700   -2.620240    1.883930
  O     -1.093970   -1.613550    1.909880
  C     -0.662190   -3.788880    1.019770
  C     -1.648590   -3.958770    0.092440
  C     -1.701780   -5.163760   -0.642690
  C     -0.723110   -6.169540   -0.396770
  C      0.285260   -5.963640    0.574010
  C      0.314820   -4.788270    1.275990
  C      1.210960   -4.295770    2.319960
  C      2.228520   -5.031110    2.876520
  C      3.086330   -4.632180    3.922450
  N      3.825810   -4.413150    4.774760
  C      2.558180   -6.345100    2.483710
  N      2.887820   -7.412380    2.216420
  C      0.801770   -2.945490    2.661160
  C      1.512500   -2.141600    3.523190
  C      3.338220   18.020770    9.804880
  O      2.736360   17.001040    9.508780
  C      2.780270   19.383860    9.824410
  C      1.512680   19.794430    9.532490
  C      1.195000   21.167920    9.630600
  C      2.205790   22.087320   10.033660
  C      3.512970   21.629990   10.325800
  C      3.798660   20.295580   10.220930
  C      5.030360   19.541410   10.452730
  C      6.232440   20.095680   10.819770
  C      7.434060   19.393480   11.039950
  N      8.453100   18.899530   11.237860
  C      6.436540   21.475650   11.023380
  N      6.675470   22.584580   11.203170
  C      4.738780   18.145650   10.210310
  C      5.628450   17.102920   10.345830
  C      5.464190   15.733360   10.134560
  S      4.002150   14.916220    9.590830
  C      4.829820   13.422130    9.637620
  C      6.168370   13.524540   10.068440
  C      6.520140   14.823960   10.333980
  C      4.571650   12.074240    9.317610
  C      5.719220   11.312680    9.530910
  C      6.839870   12.170370   10.071600
  S      3.275230   11.131910    8.708180
  C      4.282310    9.688850    8.733030
  C      5.551820    9.972130    9.207440
  C      3.738680    8.446800    8.253000
  C      4.465690    7.231610    8.234710
  C      3.873210    6.112590    7.682210
  C      2.580890    6.105200    7.145980
  C      1.832820    7.306030    7.215270
  C      2.431840    8.427380    7.755060
  C      2.082170    4.898580    6.542420
  S      3.044750    3.429800    6.632190
  C      1.876310    2.584520    5.703570
  C      0.789590    3.389230    5.357870
  C      0.916080    4.691590    5.825780
  C      1.717230    1.310110    5.124760
  C      0.514100    1.293420    4.397840
  C     -0.206790    2.615680    4.529280
  S      2.565690   -0.165400    5.023510
  C      1.302740   -0.832810    3.972460
  C      0.281310    0.095430    3.760100
  O      5.717820    7.229600    8.756450
  C     -0.460170    3.271230    3.163230
  C      0.812870    3.420760    2.338270
  C      7.166820   11.686190   11.501120
  C      8.170120   12.545450   12.258260
  O      0.553440    7.278830    6.758210
  C     -0.238750    8.453530    6.760970
  C      0.100530    9.398340    5.612390
  C      6.454970    6.020490    8.808640
  C      7.775240    6.322680    9.500860
  C      8.077610   12.139990    9.161400
  C      7.747580   12.471650    7.710660
  C     -1.523860    2.366020    5.297940
  C     -2.293090    3.623780    5.678960
  C     -0.776410   -7.368770   -1.133680
  C     -1.762650   -7.541260   -2.064370
  C     -2.734220   -6.564500   -2.320180
  C     -2.696790   -5.394240   -1.614150
  C      1.883660   23.454330   10.136440
  C      0.613120   23.868270    9.847010
  C     -0.393650   22.980260    9.446560
  C     -0.097860   21.649260    9.342350
  F      0.302870   25.174670    9.945870
  F     -1.815590   -8.687010   -2.769940
  H     -2.378590   -3.181780   -0.079240
  H      1.010140   -6.745410    0.731480
  H      2.418920   -2.579810    3.923970
  H      0.760320   19.080480    9.232310
  H      4.253120   22.353350   10.626980
  H      6.629010   17.363060   10.669570
  H      7.492780   15.161240   10.646160
  H      6.314390    9.224120    9.294640
  H      4.427670    5.189000    7.640260
  H      1.881420    9.352600    7.802180
  H      0.211930    5.477890    5.640740
  H     -0.570130   -0.133420    3.146180
  H     -1.178560    2.659320    2.614890
  H     -0.898080    4.257190    3.322320
  H      1.256120    2.449490    2.131610
  H      0.586940    3.901490    1.389540
  H      1.545010    4.028980    2.865360
  H      6.232150   11.652760   12.066730
  H      7.545970   10.664510   11.427460
  H      7.798100   13.558780   12.379200
  H      8.331290   12.124170   13.247980
  H      9.128340   12.580490   11.747560
  H     -1.260890    8.081570    6.642520
  H     -0.171700    8.965720    7.727440
  H     -0.002760    8.878420    4.663150
  H     -0.579930   10.244850    5.626480
  H      1.120110    9.765980    5.692520
  H      5.895920    5.262760    9.373160
  H      6.637260    5.644360    7.793220
  H      7.592040    6.706810   10.500990
  H      8.368010    5.415740    9.572460
  H      8.332210    7.065970    8.936360
  H      8.804990   12.861890    9.533560
  H      8.523960   11.144930    9.215130
  H      7.298450   13.459370    7.634830
  H      8.654220   12.460950    7.110570
  H      7.052570   11.745500    7.295190
  H     -2.153940    1.726100    4.677110
  H     -1.282200    1.811210    6.208160
  H     -2.588770    4.189100    4.799450
  H     -3.195490    3.343770    6.217810
  H     -1.696390    4.261970    6.325040
  H     -0.044900   -8.143070   -0.962510
  H     -3.488430   -6.756790   -3.066760
  H     -3.434320   -4.626260   -1.793420
  H      2.634230   24.166800   10.441150
  H     -1.377730   23.364810    9.230120
  H     -0.856910   20.945190    9.036020

 Total Charge           Charge          ....    0
 Multiplicity           Mult            ....    1
 Number of Electrons    NEL             ....  610
 Basis Dimension        Dim             .... 1432

ORBITAL ENERGIES
----------------

  NO   OCC          E(Eh)            E(eV)
   0   2.0000     -88.996096     -2421.7069
   1   2.0000     -88.993665     -2421.6407
   2   2.0000     -88.991853     -2421.5914
   3   2.0000     -88.990836     -2421.5638
   4   2.0000     -24.812866      -675.1924
   5   2.0000     -24.812418      -675.1802
   6   2.0000     -19.295162      -525.0480
   7   2.0000     -19.294553      -525.0315
   8   2.0000     -19.247173      -523.7422
   9   2.0000     -19.245756      -523.7037
  10   2.0000     -14.443944      -393.0397
  11   2.0000     -14.442696      -393.0057
  12   2.0000     -14.439311      -392.9136
  13   2.0000     -14.438947      -392.9037
  14   2.0000     -10.397497      -282.9303
  15   2.0000     -10.397047      -282.9180
  16   2.0000     -10.395348      -282.8718
  17   2.0000     -10.394056      -282.8366
  18   2.0000     -10.379609      -282.4435
  19   2.0000     -10.378852      -282.4229
  20   2.0000     -10.370270      -282.1894
  21   2.0000     -10.369799      -282.1766
  22   2.0000     -10.369576      -282.1705
  23   2.0000     -10.369276      -282.1623
  24   2.0000     -10.364235      -282.0252
  25   2.0000     -10.364082      -282.0210
  26   2.0000     -10.358975      -281.8820
  27   2.0000     -10.352708      -281.7115
  28   2.0000     -10.352202      -281.6977
  29   2.0000     -10.351917      -281.6900
  30   2.0000     -10.351660      -281.6830
  31   2.0000     -10.349112      -281.6137
  32   2.0000     -10.345912      -281.5266
  33   2.0000     -10.345669      -281.5200
  34   2.0000     -10.344488      -281.4878
  35   2.0000     -10.344293      -281.4825
  36   2.0000     -10.343383      -281.4577
  37   2.0000     -10.341610      -281.4095
  38   2.0000     -10.341299      -281.4010
  39   2.0000     -10.340042      -281.3669
  40   2.0000     -10.334276      -281.2100
  41   2.0000     -10.334172      -281.2071
  42   2.0000     -10.333925      -281.2004
  43   2.0000     -10.333673      -281.1935
  44   2.0000     -10.332628      -281.1651
  45   2.0000     -10.331976      -281.1474
  46   2.0000     -10.330717      -281.1131
  47   2.0000     -10.330693      -281.1124
  48   2.0000     -10.329369      -281.0764
  49   2.0000     -10.329041      -281.0675
  50   2.0000     -10.328950      -281.0650
  51   2.0000     -10.327401      -281.0229
  52   2.0000     -10.326577      -281.0004
  53   2.0000     -10.326220      -280.9907
  54   2.0000     -10.325891      -280.9818
  55   2.0000     -10.325706      -280.9767
  56   2.0000     -10.325190      -280.9627
  57   2.0000     -10.322520      -280.8900
  58   2.0000     -10.322238      -280.8824
  59   2.0000     -10.322151      -280.8800
  60   2.0000     -10.319682      -280.8128
  61   2.0000     -10.319141      -280.7981
  62   2.0000     -10.318738      -280.7871
  63   2.0000     -10.318712      -280.7864
  64   2.0000     -10.318449      -280.7793
  65   2.0000     -10.317328      -280.7488
  66   2.0000     -10.316680      -280.7311
  67   2.0000     -10.316207      -280.7183
  68   2.0000     -10.316198      -280.7180
  69   2.0000     -10.315220      -280.6914
  70   2.0000     -10.314932      -280.6836
  71   2.0000     -10.314310      -280.6666
  72   2.0000     -10.311388      -280.5871
  73   2.0000     -10.310584      -280.5653
  74   2.0000     -10.306293      -280.4485
  75   2.0000     -10.306040      -280.4416
  76   2.0000     -10.305862      -280.4368
  77   2.0000     -10.305862      -280.4368
  78   2.0000     -10.305183      -280.4183
  79   2.0000     -10.304897      -280.4105
  80   2.0000     -10.291039      -280.0334
  81   2.0000     -10.290625      -280.0221
  82   2.0000     -10.285798      -279.8908
  83   2.0000     -10.285699      -279.8881
  84   2.0000      -8.109639      -220.6745
  85   2.0000      -8.106773      -220.5965
  86   2.0000      -8.105000      -220.5483
  87   2.0000      -8.102305      -220.4749
  88   2.0000      -6.069023      -165.1465
  89   2.0000      -6.066348      -165.0737
  90   2.0000      -6.065003      -165.0371
  91   2.0000      -6.064515      -165.0238
  92   2.0000      -6.062272      -164.9628
  93   2.0000      -6.062031      -164.9562
  94   2.0000      -6.061994      -164.9553
  95   2.0000      -6.060525      -164.9153
  96   2.0000      -6.059004      -164.8739
  97   2.0000      -6.057331      -164.8284
  98   2.0000      -6.057244      -164.8260
  99   2.0000      -6.054665      -164.7558
 100   2.0000      -1.334285       -36.3077
 101   2.0000      -1.333722       -36.2924
 102   2.0000      -1.201855       -32.7042
 103   2.0000      -1.200073       -32.6557
 104   2.0000      -1.164655       -31.6919
 105   2.0000      -1.162222       -31.6257
 106   2.0000      -1.059681       -28.8354
 107   2.0000      -1.056999       -28.7624
 108   2.0000      -1.049058       -28.5463
 109   2.0000      -1.048710       -28.5369
 110   2.0000      -1.032556       -28.0973
 111   2.0000      -1.031877       -28.0788
 112   2.0000      -1.024966       -27.8908
 113   2.0000      -1.022777       -27.8312
 114   2.0000      -1.021979       -27.8095
 115   2.0000      -1.020099       -27.7583
 116   2.0000      -1.008406       -27.4401
 117   2.0000      -1.007482       -27.4150
 118   2.0000      -1.000380       -27.2217
 119   2.0000      -0.977656       -26.6034
 120   2.0000      -0.969416       -26.3791
 121   2.0000      -0.958139       -26.0723
 122   2.0000      -0.957844       -26.0643
 123   2.0000      -0.938512       -25.5382
 124   2.0000      -0.935232       -25.4490
 125   2.0000      -0.932078       -25.3631
 126   2.0000      -0.922142       -25.0928
 127   2.0000      -0.920428       -25.0461
 128   2.0000      -0.915723       -24.9181
 129   2.0000      -0.915000       -24.8984
 130   2.0000      -0.909230       -24.7414
 131   2.0000      -0.900099       -24.4929
 132   2.0000      -0.894855       -24.3502
 133   2.0000      -0.884357       -24.0646
 134   2.0000      -0.880804       -23.9679
 135   2.0000      -0.880494       -23.9594
 136   2.0000      -0.877180       -23.8693
 137   2.0000      -0.877103       -23.8672
 138   2.0000      -0.872121       -23.7316
 139   2.0000      -0.871622       -23.7181
 140   2.0000      -0.866484       -23.5782
 141   2.0000      -0.865825       -23.5603
 142   2.0000      -0.857069       -23.3220
 143   2.0000      -0.849823       -23.1249
 144   2.0000      -0.841486       -22.8980
 145   2.0000      -0.819816       -22.3083
 146   2.0000      -0.803520       -21.8649
 147   2.0000      -0.801705       -21.8155
 148   2.0000      -0.795719       -21.6526
 149   2.0000      -0.793893       -21.6029
 150   2.0000      -0.791302       -21.5324
 151   2.0000      -0.787809       -21.4374
 152   2.0000      -0.776185       -21.1211
 153   2.0000      -0.764563       -20.8048
 154   2.0000      -0.752817       -20.4852
 155   2.0000      -0.745589       -20.2885
 156   2.0000      -0.740165       -20.1409
 157   2.0000      -0.739118       -20.1124
 158   2.0000      -0.737201       -20.0603
 159   2.0000      -0.735406       -20.0114
 160   2.0000      -0.733115       -19.9491
 161   2.0000      -0.731451       -19.9038
 162   2.0000      -0.725004       -19.7284
 163   2.0000      -0.721454       -19.6318
 164   2.0000      -0.715102       -19.4589
 165   2.0000      -0.713066       -19.4035
 166   2.0000      -0.707942       -19.2641
 167   2.0000      -0.694780       -18.9059
 168   2.0000      -0.693858       -18.8808
 169   2.0000      -0.685359       -18.6496
 170   2.0000      -0.676984       -18.4217
 171   2.0000      -0.671724       -18.2785
 172   2.0000      -0.668607       -18.1937
 173   2.0000      -0.668078       -18.1793
 174   2.0000      -0.665078       -18.0977
 175   2.0000      -0.661741       -18.0069
 176   2.0000      -0.658841       -17.9280
 177   2.0000      -0.658198       -17.9105
 178   2.0000      -0.657673       -17.8962
 179   2.0000      -0.651325       -17.7234
 180   2.0000      -0.650479       -17.7004
 181   2.0000      -0.644360       -17.5339
 182   2.0000      -0.631956       -17.1964
 183   2.0000      -0.630934       -17.1686
 184   2.0000      -0.618666       -16.8347
 185   2.0000      -0.616243       -16.7688
 186   2.0000      -0.613614       -16.6973
 187   2.0000      -0.608197       -16.5499
 188   2.0000      -0.603766       -16.4293
 189   2.0000      -0.600530       -16.3412
 190   2.0000      -0.596894       -16.2423
 191   2.0000      -0.592405       -16.1202
 192   2.0000      -0.591972       -16.1084
 193   2.0000      -0.589259       -16.0345
 194   2.0000      -0.587296       -15.9811
 195   2.0000      -0.586781       -15.9671
 196   2.0000      -0.584911       -15.9162
 197   2.0000      -0.584046       -15.8927
 198   2.0000      -0.582126       -15.8404
 199   2.0000      -0.581688       -15.8285
 200   2.0000      -0.577091       -15.7034
 201   2.0000      -0.576400       -15.6846
 202   2.0000      -0.573174       -15.5969
 203   2.0000      -0.570868       -15.5341
 204   2.0000      -0.568808       -15.4780
 205   2.0000      -0.568096       -15.4587
 206   2.0000      -0.566518       -15.4157
 207   2.0000      -0.563515       -15.3340
 208   2.0000      -0.561044       -15.2668
 209   2.0000      -0.558027       -15.1847
 210   2.0000      -0.556511       -15.1434
 211   2.0000      -0.554131       -15.0787
 212   2.0000      -0.551241       -15.0000
 213   2.0000      -0.550995       -14.9933
 214   2.0000      -0.550856       -14.9896
 215   2.0000      -0.547489       -14.8979
 216   2.0000      -0.547399       -14.8955
 217   2.0000      -0.543932       -14.8011
 218   2.0000      -0.541172       -14.7260
 219   2.0000      -0.540277       -14.7017
 220   2.0000      -0.536217       -14.5912
 221   2.0000      -0.532296       -14.4845
 222   2.0000      -0.531329       -14.4582
 223   2.0000      -0.530168       -14.4266
 224   2.0000      -0.525844       -14.3089
 225   2.0000      -0.524669       -14.2770
 226   2.0000      -0.521885       -14.2012
 227   2.0000      -0.519096       -14.1253
 228   2.0000      -0.517592       -14.0844
 229   2.0000      -0.516881       -14.0651
 230   2.0000      -0.516618       -14.0579
 231   2.0000      -0.514660       -14.0046
 232   2.0000      -0.513174       -13.9642
 233   2.0000      -0.510731       -13.8977
 234   2.0000      -0.509329       -13.8595
 235   2.0000      -0.507397       -13.8070
 236   2.0000      -0.506290       -13.7768
 237   2.0000      -0.503692       -13.7062
 238   2.0000      -0.502592       -13.6762
 239   2.0000      -0.500388       -13.6162
 240   2.0000      -0.498861       -13.5747
 241   2.0000      -0.496452       -13.5091
 242   2.0000      -0.495109       -13.4726
 243   2.0000      -0.494786       -13.4638
 244   2.0000      -0.489874       -13.3302
 245   2.0000      -0.487158       -13.2562
 246   2.0000      -0.483915       -13.1680
 247   2.0000      -0.483197       -13.1485
 248   2.0000      -0.482868       -13.1395
 249   2.0000      -0.482805       -13.1378
 250   2.0000      -0.478418       -13.0184
 251   2.0000      -0.477158       -12.9841
 252   2.0000      -0.475740       -12.9456
 253   2.0000      -0.473456       -12.8834
 254   2.0000      -0.472462       -12.8564
 255   2.0000      -0.470665       -12.8074
 256   2.0000      -0.470353       -12.7990
 257   2.0000      -0.467653       -12.7255
 258   2.0000      -0.466297       -12.6886
 259   2.0000      -0.464475       -12.6390
 260   2.0000      -0.462498       -12.5852
 261   2.0000      -0.462371       -12.5818
 262   2.0000      -0.460623       -12.5342
 263   2.0000      -0.459604       -12.5065
 264   2.0000      -0.458704       -12.4820
 265   2.0000      -0.454969       -12.3803
 266   2.0000      -0.454190       -12.3591
 267   2.0000      -0.453918       -12.3517
 268   2.0000      -0.453088       -12.3292
 269   2.0000      -0.452485       -12.3127
 270   2.0000      -0.445238       -12.1155
 271   2.0000      -0.444621       -12.0988
 272   2.0000      -0.443950       -12.0805
 273   2.0000      -0.442694       -12.0463
 274   2.0000      -0.441497       -12.0137
 275   2.0000      -0.435807       -11.8589
 276   2.0000      -0.433071       -11.7845
 277   2.0000      -0.432182       -11.7603
 278   2.0000      -0.431690       -11.7469
 279   2.0000      -0.430542       -11.7156
 280   2.0000      -0.428888       -11.6706
 281   2.0000      -0.426204       -11.5976
 282   2.0000      -0.423920       -11.5354
 283   2.0000      -0.422709       -11.5025
 284   2.0000      -0.419511       -11.4155
 285   2.0000      -0.417072       -11.3491
 286   2.0000      -0.410336       -11.1658
 287   2.0000      -0.408946       -11.1280
 288   2.0000      -0.398512       -10.8441
 289   2.0000      -0.384862       -10.4726
 290   2.0000      -0.366019        -9.9599
 291   2.0000      -0.364055        -9.9064
 292   2.0000      -0.363445        -9.8898
 293   2.0000      -0.359933        -9.7943
 294   2.0000      -0.359392        -9.7796
 295   2.0000      -0.357885        -9.7386
 296   2.0000      -0.352530        -9.5928
 297   2.0000      -0.342351        -9.3158
 298   2.0000      -0.338064        -9.1992
 299   2.0000      -0.335891        -9.1400
 300   2.0000      -0.324122        -8.8198
 301   2.0000      -0.322437        -8.7740
 302   2.0000      -0.312430        -8.5017
 303   2.0000      -0.284059        -7.7296
 304   2.0000      -0.260072        -7.0769
 305   0.0000      -0.074564        -2.0290
 306   0.0000      -0.065106        -1.7716
 307   0.0000      -0.032760        -0.8915
 308   0.0000      -0.027424        -0.7463
 309   0.0000      -0.016912        -0.4602

MULLIKEN ATOMIC CHARGES
-----------------------
   0 C :    0.231548
   1 O :   -0.197778
   2 C :   -0.054109
   3 C :   -0.053990
   4 C :    0.050357
   5 C :    0.054070
   6 C :   -0.061541
   7 C :    0.033216
   8 C :    0.297493
   9 C :   -0.390654
  10 C :   -0.131548
  11 N :    0.095756
  12 C :   -0.124222
  13 N :    0.096871
  14 C :   -0.150025
  15 C :    0.065414
  16 C :    0.238933
  17 O :   -0.215474
  18 C :   -0.055816
  19 C :   -0.048916
  20 C :    0.045753
  21 C :    0.050576
  22 C :   -0.058551
  23 C :    0.031550
  24 C :    0.308588
  25 C :   -0.390239
  26 C :   -0.130344
  27 N :    0.088590
  28 C :   -0.123983
  29 N :    0.094127
  30 C :   -0.158307
  31 C :    0.000448
  32 C :   -0.089886
  33 S :    0.217205
  34 C :   -0.035487
  35 C :    0.027346
  36 C :   -0.063766
  37 C :   -0.075767
  38 C :    0.020915
  39 C :   -0.188672
  40 S :    0.105616
  41 C :   -0.084854
  42 C :   -0.040103
  43 C :    0.091961
  44 C :    0.233005
  45 C :   -0.196304
  46 C :    0.095039
  47 C :    0.233723
  48 C :   -0.182550
  49 C :   -0.085312
  50 S :    0.115580
  51 C :   -0.077474
  52 C :    0.023092
  53 C :   -0.047117
  54 C :   -0.046235
  55 C :   -0.025653
  56 C :   -0.193677
  57 S :    0.173605
  58 C :   -0.160493
  59 C :    0.016630
  60 O :   -0.355518
  61 C :    0.017828
  62 C :   -0.019565
  63 C :    0.036309
  64 C :   -0.014334
  65 O :   -0.355385
  66 C :    0.123431
  67 C :   -0.068920
  68 C :    0.092431
  69 C :   -0.038962
  70 C :    0.016013
  71 C :   -0.020695
  72 C :    0.037351
  73 C :   -0.019322
  74 C :   -0.104135
  75 C :    0.310832
  76 C :   -0.061741
  77 C :   -0.012719
  78 C :   -0.100499
  79 C :    0.308055
  80 C :   -0.058475
  81 C :   -0.010810
  82 F :   -0.206837
  83 F :   -0.206815
  84 H :    0.011265
  85 H :    0.016739
  86 H :    0.021967
  87 H :    0.011439
  88 H :    0.015796
  89 H :    0.025661
  90 H :    0.030704
  91 H :    0.006759
  92 H :    0.009585
  93 H :    0.005694
  94 H :    0.015927
  95 H :    0.035764
  96 H :    0.034744
  97 H :    0.028704
  98 H :    0.041432
  99 H :    0.034855
 100 H :    0.038849
 101 H :    0.032778
 102 H :    0.022030
 103 H :    0.033400
 104 H :    0.040214
 105 H :    0.029627
 106 H :    0.047228
 107 H :    0.041557
 108 H :    0.047129
 109 H :    0.049794
 110 H :    0.045220
 111 H :    0.043425
 112 H :    0.044341
 113 H :    0.049866
 114 H :    0.047530
 115 H :    0.050131
 116 H :    0.035192
 117 H :    0.024581
 118 H :    0.039583
 119 H :    0.036653
 120 H :    0.041623
 121 H :    0.032074
 122 H :    0.032022
 123 H :    0.025150
 124 H :    0.039997
 125 H :    0.036449
 126 H :    0.030318
 127 H :    0.033885
 128 H :    0.017644
 129 H :    0.028925
 130 H :    0.032760
 131 H :    0.017318
Sum of atomic charges:   -0.0000000

LOEWDIN ATOMIC CHARGES
----------------------
   0 C :    0.095451
   1 O :   -0.161258
   2 C :   -0.061361
   3 C :    0.031402
   4 C :   -0.023886
   5 C :   -0.002090
   6 C :    0.015548
   7 C :   -0.023505
   8 C :    0.081763
   9 C :   -0.157791
  10 C :   -0.019249
  11 N :   -0.061960
  12 C :   -0.011623
  13 N :   -0.065481
  14 C :   -0.124205
  15 C :    0.055397
  16 C :    0.090771
  17 O :   -0.181509
  18 C :   -0.060873
  19 C :    0.031930
  20 C :   -0.024231
  21 C :   -0.002202
  22 C :    0.016000
  23 C :   -0.022410
  24 C :    0.082466
  25 C :   -0.159787
  26 C :   -0.014714
  27 N :   -0.067423
  28 C :   -0.012296
  29 N :   -0.066110
  30 C :   -0.135892
  31 C :    0.064030
  32 C :   -0.195213
  33 S :    0.506131
  34 C :   -0.162493
  35 C :   -0.052195
  36 C :   -0.008412
  37 C :   -0.210004
  38 C :   -0.019285
  39 C :   -0.038586
  40 S :    0.428990
  41 C :   -0.136237
  42 C :   -0.055550
  43 C :   -0.054116
  44 C :    0.058097
  45 C :   -0.066019
  46 C :   -0.055064
  47 C :    0.059770
  48 C :   -0.065680
  49 C :   -0.137076
  50 S :    0.431237
  51 C :   -0.208728
  52 C :   -0.021021
  53 C :   -0.057111
  54 C :   -0.158110
  55 C :   -0.047877
  56 C :   -0.038380
  57 S :    0.453043
  58 C :   -0.187568
  59 C :    0.003413
  60 O :   -0.100567
  61 C :   -0.016349
  62 C :   -0.058085
  63 C :   -0.012303
  64 C :   -0.060177
  65 O :   -0.097943
  66 C :    0.079307
  67 C :   -0.074030
  68 C :    0.081144
  69 C :   -0.064880
  70 C :   -0.016992
  71 C :   -0.058343
  72 C :   -0.010659
  73 C :   -0.061969
  74 C :   -0.043853
  75 C :    0.095981
  76 C :   -0.041085
  77 C :    0.001380
  78 C :   -0.043588
  79 C :    0.096054
  80 C :   -0.041053
  81 C :    0.001569
  82 F :   -0.070846
  83 F :   -0.071097
  84 H :    0.040789
  85 H :    0.040959
  86 H :    0.043536
  87 H :    0.041266
  88 H :    0.041036
  89 H :    0.051427
  90 H :    0.040252
  91 H :    0.031168
  92 H :    0.019721
  93 H :    0.017617
  94 H :    0.030483
  95 H :    0.037092
  96 H :    0.028254
  97 H :    0.022992
  98 H :    0.027486
  99 H :    0.028302
 100 H :    0.026967
 101 H :    0.030386
 102 H :    0.023195
 103 H :    0.025711
 104 H :    0.032414
 105 H :    0.023834
 106 H :    0.029328
 107 H :    0.016882
 108 H :    0.033084
 109 H :    0.037389
 110 H :    0.028820
 111 H :    0.018590
 112 H :    0.018171
 113 H :    0.032660
 114 H :    0.036978
 115 H :    0.031780
 116 H :    0.025074
 117 H :    0.024200
 118 H :    0.027721
 119 H :    0.028615
 120 H :    0.027262
 121 H :    0.026677
 122 H :    0.030342
 123 H :    0.022216
 124 H :    0.031951
 125 H :    0.026539
 126 H :    0.046968
 127 H :    0.044677
 128 H :    0.037805
 129 H :    0.046752
 130 H :    0.044430
 131 H :    0.037731

  Mayer bond orders larger than 0.100000
B(  0-C ,  1-O ) :   2.1319 B(  0-C ,  2-C ) :   0.9589 B(  0-C , 14-C ) :   0.9587
B(  2-C ,  3-C ) :   1.5075 B(  2-C ,  7-C ) :   1.2180 B(  3-C ,  4-C ) :   1.1953
B(  3-C , 84-H ) :   1.0114 B(  4-C ,  5-C ) :   1.2640 B(  4-C , 77-C ) :   1.2408
B(  5-C ,  6-C ) :   1.2153 B(  5-C , 74-C ) :   1.2136 B(  6-C ,  7-C ) :   1.4911
B(  6-C , 85-H ) :   0.9881 B(  7-C ,  8-C ) :   0.9920 B(  8-C ,  9-C ) :   1.6114
B(  8-C , 14-C ) :   1.1134 B(  9-C , 10-C ) :   1.1307 B(  9-C , 12-C ) :   1.1398
B( 10-C , 11-N ) :   2.9577 B( 12-C , 13-N ) :   2.9564 B( 14-C , 15-C ) :   1.5556
B( 15-C , 58-C ) :   1.2896 B( 15-C , 86-H ) :   0.9090 B( 16-C , 17-O ) :   2.1077
B( 16-C , 18-C ) :   0.9612 B( 16-C , 30-C ) :   0.9914 B( 18-C , 19-C ) :   1.5098
B( 18-C , 23-C ) :   1.2162 B( 19-C , 20-C ) :   1.1944 B( 19-C , 87-H ) :   1.0103
B( 20-C , 21-C ) :   1.2663 B( 20-C , 81-C ) :   1.2421 B( 21-C , 22-C ) :   1.2113
B( 21-C , 78-C ) :   1.2176 B( 22-C , 23-C ) :   1.4995 B( 22-C , 88-H ) :   0.9868
B( 23-C , 24-C ) :   0.9934 B( 24-C , 25-C ) :   1.6093 B( 24-C , 30-C ) :   1.1159
B( 25-C , 26-C ) :   1.1388 B( 25-C , 28-C ) :   1.1388 B( 26-C , 27-N ) :   2.9511
B( 28-C , 29-N ) :   2.9561 B( 30-C , 31-C ) :   1.4679 B( 31-C , 32-C ) :   1.3361
B( 31-C , 89-H ) :   0.9393 B( 32-C , 33-S ) :   1.0610 B( 32-C , 36-C ) :   1.3014
B( 33-S , 34-C ) :   1.1096 B( 34-C , 35-C ) :   1.4138 B( 34-C , 37-C ) :   1.2224
B( 35-C , 36-C ) :   1.4167 B( 35-C , 39-C ) :   0.9120 B( 36-C , 90-H ) :   1.0117
B( 37-C , 38-C ) :   1.5130 B( 37-C , 40-S ) :   1.0745 B( 38-C , 39-C ) :   0.9403
B( 38-C , 42-C ) :   1.2867 B( 39-C , 63-C ) :   1.0173 B( 39-C , 70-C ) :   1.0287
B( 40-S , 41-C ) :   1.1195 B( 41-C , 42-C ) :   1.4838 B( 41-C , 43-C ) :   1.1043
B( 42-C , 91-H ) :   1.0082 B( 43-C , 44-C ) :   1.3353 B( 43-C , 48-C ) :   1.3174
B( 44-C , 45-C ) :   1.3479 B( 44-C , 60-O ) :   1.1260 B( 45-C , 46-C ) :   1.2992
B( 45-C , 92-H ) :   0.9794 B( 46-C , 47-C ) :   1.3394 B( 46-C , 49-C ) :   1.1010
B( 47-C , 48-C ) :   1.3408 B( 47-C , 65-O ) :   1.1243 B( 48-C , 93-H ) :   0.9752
B( 49-C , 50-S ) :   1.1191 B( 49-C , 53-C ) :   1.4901 B( 50-S , 51-C ) :   1.0772
B( 51-C , 52-C ) :   1.5166 B( 51-C , 54-C ) :   1.2181 B( 52-C , 53-C ) :   1.2906
B( 52-C , 56-C ) :   0.9272 B( 53-C , 94-H ) :   0.9994 B( 54-C , 55-C ) :   1.4380
B( 54-C , 57-S ) :   1.1431 B( 55-C , 56-C ) :   0.9312 B( 55-C , 59-C ) :   1.3847
B( 56-C , 61-C ) :   1.0316 B( 56-C , 72-C ) :   1.0145 B( 57-S , 58-C ) :   1.0714
B( 58-C , 59-C ) :   1.3562 B( 59-C , 95-H ) :   0.9804 B( 60-O , 68-C ) :   0.9251
B( 61-C , 62-C ) :   1.0883 B( 61-C , 96-H ) :   0.9483 B( 61-C , 97-H ) :   0.9463
B( 62-C , 98-H ) :   0.9671 B( 62-C , 99-H ) :   0.9703 B( 62-C ,100-H ) :   0.9692
B( 63-C , 64-C ) :   1.0982 B( 63-C ,101-H ) :   0.9472 B( 63-C ,102-H ) :   0.9444
B( 64-C ,103-H ) :   0.9669 B( 64-C ,104-H ) :   0.9671 B( 64-C ,105-H ) :   0.9673
B( 65-O , 66-C ) :   0.9181 B( 66-C , 67-C ) :   1.0960 B( 66-C ,106-H ) :   0.9603
B( 66-C ,107-H ) :   0.9528 B( 67-C ,108-H ) :   0.9665 B( 67-C ,109-H ) :   0.9663
B( 67-C ,110-H ) :   0.9686 B( 68-C , 69-C ) :   1.0871 B( 68-C ,111-H ) :   0.9527
B( 68-C ,112-H ) :   0.9524 B( 69-C ,113-H ) :   0.9711 B( 69-C ,114-H ) :   0.9649
B( 69-C ,115-H ) :   0.9710 B( 70-C , 71-C ) :   1.0881 B( 70-C ,116-H ) :   0.9470
B( 70-C ,117-H ) :   0.9489 B( 71-C ,118-H ) :   0.9697 B( 71-C ,119-H ) :   0.9706
B( 71-C ,120-H ) :   0.9665 B( 72-C , 73-C ) :   1.0992 B( 72-C ,121-H ) :   0.9457
B( 72-C ,122-H ) :   0.9469 B( 73-C ,123-H ) :   0.9672 B( 73-C ,124-H ) :   0.9667
B( 73-C ,125-H ) :   0.9659 B( 74-C , 75-C ) :   1.4556 B( 74-C ,126-H ) :   1.0035
B( 75-C , 76-C ) :   1.2562 B( 75-C , 83-F ) :   1.0592 B( 76-C , 77-C ) :   1.4794
B( 76-C ,127-H ) :   0.9931 B( 77-C ,128-H ) :   0.9966 B( 78-C , 79-C ) :   1.4540
B( 78-C ,129-H ) :   1.0023 B( 79-C , 80-C ) :   1.2603 B( 79-C , 82-F ) :   1.0592
B( 80-C , 81-C ) :   1.4783 B( 80-C ,130-H ) :   0.9918 B( 81-C ,131-H ) :   0.9955

-----------------------------------------------------------------------------
         ABSORPTION SPECTRUM VIA TRANSITION ELECTRIC DIPOLE MOMENTS
-----------------------------------------------------------------------------
State   Energy  Wavelength   fosc         T2         TX        TY        TZ
        (cm-1)    (nm)                  (au**2)     (au)      (au)      (au)
-----------------------------------------------------------------------------
   0   17929.3    557.7   4.293450971  78.83481  -0.98947  -8.38784  -2.73859
   1   23918.6    418.1   0.077827679   1.07121   0.05568  -0.36654   0.96631
   2   30609.2    326.7   0.025335364   0.27249   0.01080  -0.52112  -0.02844
   3   31092.7    321.6   0.004083051   0.04323  -0.04883  -0.12606   0.15798
   4   31211.6    320.4   0.138712016   1.46310   0.94713  -0.51119   0.55202
   5   32364.2    309.0   0.047316313   0.48131  -0.62616   0.18763  -0.23243
   6   33968.4    294.4   0.495865145   4.80579  -1.80693   0.11773  -1.23569
   7   34074.2    293.5   0.146818599   1.41851   0.07748   1.06129   0.53494
   8   34753.8    287.7   0.114433476   1.08399   0.39673  -0.82433  -0.49707
   9   35600.6    280.9   0.196927050   1.82106  -0.91826   0.97933  -0.13701
  10   36944.0    270.7   0.088155385   0.78556  -0.17071   0.45062   0.74388
  11   39000.6    256.4   0.004787521   0.04041   0.13156  -0.00305  -0.15197
  12   39883.0    250.7   0.094442140   0.77957  -0.73335  -0.06778  -0.48700

Dispersion correction           -0.079290786
FINAL SINGLE POINT ENERGY     -5004.700487303905

DIPOLE MOMENT
-------------
                                X             Y             Z
Electronic contribution:    -15.70068      -3.86212     -12.26085
Nuclear contribution   :     12.84650       4.29853      11.38569
                        -----------------------------------------
Total Dipole Moment    :     -2.85418       0.43641      -0.87516
                        -----------------------------------------
Magnitude (a.u.)       :      3.01707
Magnitude (Debye)      :      7.66878

Rotational constants in cm-1:     0.001707     0.000133     0.000126
Rotational constants in MHz :    51.182637     4.000675     3.766254

                             ****ORCA TERMINATED NORMALLY****
TOTAL RUN TIME: 0 days 0 hours 14 minutes 19 seconds 740 msec
