                         Program Version 4.2.0 -  RELEASE  -
|  1> # ORCA input file
|  2> # SCF done       -198.734887180358          0.000862188662
|  3> ! wb97x-d3 def2-SVP def2/J RIJCOSX Grid4 TightSCF
|  4> %maxcore 5000
|  5> %tddft
|  6>     Mode sTDA
|  7>     Ethresh 5.0
|  8>     maxcore 5000
|  9> end
| 10>
| 11> %pal
| 12>   nprocs 6
| 13>   end
| 14> * xyz 0 1
| 15>    C        0.19106         1.00111         0.35945
| 16>    C        0.34416         1.96118        -0.65191
| 17>    S       -0.97000         1.95129        -1.80833
| 18>    C       -1.64172         0.57673        -1.00108
| 19>    C       -0.94382         0.21214         0.15925
| 20>    N       -1.43791        -0.96497         0.64939
| 21>    C       -0.73793        -1.67516         1.69248
| 22>    C       -2.41418        -1.40623        -0.21765
| 23>    C       -2.56211        -0.44876        -1.26250
| 24>    C       -3.32434        -0.73850        -2.41812
| 25>    N       -3.58504         0.04204        -3.45379
| 26>    S       -4.35664        -0.83144        -4.57650
| 27>    N       -4.38039        -2.24413        -3.78897
| 28>    C       -3.79521        -2.08189        -2.61349
| 29>    C       -3.60589        -3.03053        -1.58325
| 30>    C       -3.06449        -2.65847        -0.32817
| 31>    N       -3.08121        -3.75556         0.52942
| 32>    C       -3.35055        -3.63972         1.95427
| 33>    C       -2.49812        -4.54728         2.83443
| 34>    C       -3.50649        -4.83722        -0.21586
| 35>    C       -3.82753        -4.41543        -1.51607
| 36>    S       -4.17989        -5.69404        -2.61805
| 37>    C       -3.83521        -6.83214        -1.34712
| 38>    C       -3.54067        -6.23261        -0.11076
| 39>    C       -1.01918        -1.08592         3.07241
| 40>    C       -2.51184       -11.88101        -1.59485
| 41>    C       -2.30089       -12.52541        -2.79207
| 42>    C       -1.62098       -13.79411        -2.94909
| 43>    C       -1.18573       -14.64045        -1.96116
| 44>    C       -0.52086       -15.86153        -2.20222
| 45>    N        0.02509       -16.86338        -2.32755
| 46>    C       -1.33317       -14.43179        -0.57422
| 47>    N       -1.41016       -14.33405         0.56825
| 48>    C       -1.45482       -14.02423        -4.38598
| 49>    C       -0.82135       -15.03915        -5.08541
| 50>    C       -0.80751       -14.96525        -6.47083
| 51>    F       -0.19348       -15.93118        -7.16338
| 52>    C       -1.41064       -13.91048        -7.15590
| 53>    C       -2.04826       -12.89284        -6.46425
| 54>    C       -2.05752       -12.96563        -5.08599
| 55>    C       -2.63390       -12.00697        -4.11963
| 56>    O       -3.25896       -10.99939        -4.39390
| 57>    S       -3.15424        -7.41091         1.11627
| 58>    C       -3.25882        -8.68649        -0.07115
| 59>    C       -3.64549        -8.21615        -1.33629
| 60>    C       -2.91361       -10.02711        -0.03430
| 61>    C       -2.98974       -10.59740        -1.32087
| 62>    S       -3.57907        -9.44919        -2.53052
| 63>    F       -1.36875       -13.87850        -8.49328
| 64>    C        4.53074         1.78329        -1.72955
| 65>    O        3.48693         1.50233        -2.27795
| 66>    C        5.88984         1.55101        -2.26947
| 67>    C        6.23687         1.00241        -3.48799
| 68>    C        7.58656         0.85538        -3.76497
| 69>    C        8.55024         1.24811        -2.83550
| 70>    F        9.84536         1.08356        -3.12580
| 71>    C        8.20104         1.79915        -1.61111
| 72>    C        6.85274         1.95062        -1.32814
| 73>    C        6.16442         2.46771        -0.14695
| 74>    C        6.75411         3.05902         0.93834
| 75>    C        6.03492         3.62510         2.01272
| 76>    N        5.50279         4.11871         2.90204
| 77>    C        8.14802         3.20170         1.09774
| 78>    N        9.27413         3.33155         1.27724
| 79>    C        4.74290         2.30152        -0.36042
| 80>    C        3.77709         2.28758         0.61267
| 81>    F        7.96930         0.32610        -4.93300
| 82>    C        1.58909         2.60194        -0.65358
| 83>    C        2.39791         2.12209         0.36955
| 84>    S        1.54865         0.97983         1.41960
| 85>    C        1.94295         3.72125        -1.57214
| 86>    C        0.96205         4.88484        -1.42578
| 87>    C       -2.52287       -10.73599         1.22108
| 88>    C       -3.68771       -11.57038         1.76090
| 89>    H       -1.00975        -2.72589         1.63986
| 90>    H        0.33562        -1.59303         1.48902
| 91>    H       -3.20715        -2.59396         2.22528
| 92>    H       -4.40769        -3.87995         2.12510
| 93>    H       -2.81312        -5.58145         2.74254
| 94>    H       -1.44423        -4.49336         2.57549
| 95>    H       -2.61551        -4.24733         3.87219
| 96>    H       -2.08325        -1.08561         3.29672
| 97>    H       -0.50321        -1.66703         3.83090
| 98>    H       -0.66021        -0.06108         3.12063
| 99>    H       -2.18909       -12.41498        -0.71166
|100>    H       -0.33770       -15.87426        -4.60619
|101>    H       -2.51332       -12.07329        -6.98843
|102>    H        5.48839         0.69514        -4.20083
|103>    H        8.98199         2.07889        -0.92309
|104>    H        4.08717         2.25710         1.65102
|105>    H        2.95574         4.06499        -1.35920
|106>    H        1.91805         3.34688        -2.59839
|107>    H        0.96654         5.25858        -0.40407
|108>    H        1.25170         5.69421        -2.09044
|109>    H       -0.04803         4.57492        -1.68007
|110>    H       -2.24232        -9.98665         1.96480
|111>    H       -1.66222       -11.38557         1.05371
|112>    H       -3.39023       -12.06392         2.68151
|113>    H       -4.54703       -10.93568         1.96512
|114>    H       -3.98110       -12.33143         1.04245
|115> *
|116>
|117>                          ****END OF INPUT****

CARTESIAN COORDINATES (ANGSTROEM)
---------------------------------
  C      0.191060    1.001110    0.359450
  C      0.344160    1.961180   -0.651910
  S     -0.970000    1.951290   -1.808330
  C     -1.641720    0.576730   -1.001080
  C     -0.943820    0.212140    0.159250
  N     -1.437910   -0.964970    0.649390
  C     -0.737930   -1.675160    1.692480
  C     -2.414180   -1.406230   -0.217650
  C     -2.562110   -0.448760   -1.262500
  C     -3.324340   -0.738500   -2.418120
  N     -3.585040    0.042040   -3.453790
  S     -4.356640   -0.831440   -4.576500
  N     -4.380390   -2.244130   -3.788970
  C     -3.795210   -2.081890   -2.613490
  C     -3.605890   -3.030530   -1.583250
  C     -3.064490   -2.658470   -0.328170
  N     -3.081210   -3.755560    0.529420
  C     -3.350550   -3.639720    1.954270
  C     -2.498120   -4.547280    2.834430
  C     -3.506490   -4.837220   -0.215860
  C     -3.827530   -4.415430   -1.516070
  S     -4.179890   -5.694040   -2.618050
  C     -3.835210   -6.832140   -1.347120
  C     -3.540670   -6.232610   -0.110760
  C     -1.019180   -1.085920    3.072410
  C     -2.511840  -11.881010   -1.594850
  C     -2.300890  -12.525410   -2.792070
  C     -1.620980  -13.794110   -2.949090
  C     -1.185730  -14.640450   -1.961160
  C     -0.520860  -15.861530   -2.202220
  N      0.025090  -16.863380   -2.327550
  C     -1.333170  -14.431790   -0.574220
  N     -1.410160  -14.334050    0.568250
  C     -1.454820  -14.024230   -4.385980
  C     -0.821350  -15.039150   -5.085410
  C     -0.807510  -14.965250   -6.470830
  F     -0.193480  -15.931180   -7.163380
  C     -1.410640  -13.910480   -7.155900
  C     -2.048260  -12.892840   -6.464250
  C     -2.057520  -12.965630   -5.085990
  C     -2.633900  -12.006970   -4.119630
  O     -3.258960  -10.999390   -4.393900
  S     -3.154240   -7.410910    1.116270
  C     -3.258820   -8.686490   -0.071150
  C     -3.645490   -8.216150   -1.336290
  C     -2.913610  -10.027110   -0.034300
  C     -2.989740  -10.597400   -1.320870
  S     -3.579070   -9.449190   -2.530520
  F     -1.368750  -13.878500   -8.493280
  C      4.530740    1.783290   -1.729550
  O      3.486930    1.502330   -2.277950
  C      5.889840    1.551010   -2.269470
  C      6.236870    1.002410   -3.487990
  C      7.586560    0.855380   -3.764970
  C      8.550240    1.248110   -2.835500
  F      9.845360    1.083560   -3.125800
  C      8.201040    1.799150   -1.611110
  C      6.852740    1.950620   -1.328140
  C      6.164420    2.467710   -0.146950
  C      6.754110    3.059020    0.938340
  C      6.034920    3.625100    2.012720
  N      5.502790    4.118710    2.902040
  C      8.148020    3.201700    1.097740
  N      9.274130    3.331550    1.277240
  C      4.742900    2.301520   -0.360420
  C      3.777090    2.287580    0.612670
  F      7.969300    0.326100   -4.933000
  C      1.589090    2.601940   -0.653580
  C      2.397910    2.122090    0.369550
  S      1.548650    0.979830    1.419600
  C      1.942950    3.721250   -1.572140
  C      0.962050    4.884840   -1.425780
  C     -2.522870  -10.735990    1.221080
  C     -3.687710  -11.570380    1.760900
  H     -1.009750   -2.725890    1.639860
  H      0.335620   -1.593030    1.489020
  H     -3.207150   -2.593960    2.225280
  H     -4.407690   -3.879950    2.125100
  H     -2.813120   -5.581450    2.742540
  H     -1.444230   -4.493360    2.575490
  H     -2.615510   -4.247330    3.872190
  H     -2.083250   -1.085610    3.296720
  H     -0.503210   -1.667030    3.830900
  H     -0.660210   -0.061080    3.120630
  H     -2.189090  -12.414980   -0.711660
  H     -0.337700  -15.874260   -4.606190
  H     -2.513320  -12.073290   -6.988430
  H      5.488390    0.695140   -4.200830
  H      8.981990    2.078890   -0.923090
  H      4.087170    2.257100    1.651020
  H      2.955740    4.064990   -1.359200
  H      1.918050    3.346880   -2.598390
  H      0.966540    5.258580   -0.404070
  H      1.251700    5.694210   -2.090440
  H     -0.048030    4.574920   -1.680070
  H     -2.242320   -9.986650    1.964800
  H     -1.662220  -11.385570    1.053710
  H     -3.390230  -12.063920    2.681510
  H     -4.547030  -10.935680    1.965120
  H     -3.981100  -12.331430    1.042450

 Total Charge           Charge          ....    0
 Multiplicity           Mult            ....    1
 Number of Electrons    NEL             ....  554
 Basis Dimension        Dim             .... 1190

ORBITAL ENERGIES
----------------

  NO   OCC          E(Eh)            E(eV)
   0   2.0000     -89.033483     -2422.7243
   1   2.0000     -89.002075     -2421.8696
   2   2.0000     -89.001588     -2421.8563
   3   2.0000     -88.996590     -2421.7203
   4   2.0000     -88.992209     -2421.6011
   5   2.0000     -88.992151     -2421.5995
   6   2.0000     -24.837109      -675.8521
   7   2.0000     -24.835536      -675.8093
   8   2.0000     -24.834031      -675.7683
   9   2.0000     -24.832132      -675.7167
  10   2.0000     -19.260803      -524.1131
  11   2.0000     -19.260542      -524.1060
  12   2.0000     -14.528106      -395.3299
  13   2.0000     -14.523004      -395.1910
  14   2.0000     -14.472569      -393.8186
  15   2.0000     -14.471326      -393.7848
  16   2.0000     -14.457643      -393.4125
  17   2.0000     -14.455278      -393.3481
  18   2.0000     -14.454808      -393.3353
  19   2.0000     -14.450417      -393.2158
  20   2.0000     -10.423408      -283.6353
  21   2.0000     -10.422907      -283.6217
  22   2.0000     -10.419863      -283.5389
  23   2.0000     -10.419187      -283.5205
  24   2.0000     -10.410519      -283.2846
  25   2.0000     -10.407849      -283.2120
  26   2.0000     -10.385130      -282.5937
  27   2.0000     -10.383615      -282.5525
  28   2.0000     -10.383333      -282.5449
  29   2.0000     -10.378357      -282.4094
  30   2.0000     -10.377238      -282.3790
  31   2.0000     -10.375912      -282.3429
  32   2.0000     -10.374429      -282.3026
  33   2.0000     -10.371997      -282.2364
  34   2.0000     -10.367273      -282.1079
  35   2.0000     -10.365970      -282.0724
  36   2.0000     -10.364011      -282.0191
  37   2.0000     -10.363382      -282.0020
  38   2.0000     -10.361965      -281.9634
  39   2.0000     -10.360254      -281.9168
  40   2.0000     -10.359196      -281.8881
  41   2.0000     -10.357495      -281.8418
  42   2.0000     -10.357139      -281.8321
  43   2.0000     -10.356706      -281.8203
  44   2.0000     -10.355862      -281.7973
  45   2.0000     -10.355664      -281.7920
  46   2.0000     -10.355247      -281.7806
  47   2.0000     -10.355228      -281.7801
  48   2.0000     -10.353001      -281.7195
  49   2.0000     -10.352034      -281.6932
  50   2.0000     -10.351660      -281.6830
  51   2.0000     -10.351526      -281.6794
  52   2.0000     -10.349776      -281.6317
  53   2.0000     -10.348515      -281.5974
  54   2.0000     -10.347804      -281.5780
  55   2.0000     -10.347463      -281.5688
  56   2.0000     -10.347010      -281.5565
  57   2.0000     -10.346358      -281.5387
  58   2.0000     -10.345881      -281.5257
  59   2.0000     -10.345099      -281.5044
  60   2.0000     -10.342855      -281.4434
  61   2.0000     -10.342578      -281.4359
  62   2.0000     -10.340789      -281.3872
  63   2.0000     -10.338645      -281.3288
  64   2.0000     -10.336847      -281.2799
  65   2.0000     -10.332458      -281.1605
  66   2.0000     -10.330954      -281.1196
  67   2.0000     -10.329372      -281.0765
  68   2.0000     -10.323134      -280.9068
  69   2.0000     -10.322864      -280.8994
  70   2.0000     -10.322176      -280.8807
  71   2.0000     -10.312425      -280.6153
  72   2.0000     -10.300014      -280.2776
  73   2.0000     -10.296067      -280.1702
  74   2.0000      -8.144670      -221.6278
  75   2.0000      -8.114744      -220.8134
  76   2.0000      -8.114579      -220.8089
  77   2.0000      -8.109743      -220.6773
  78   2.0000      -8.104877      -220.5449
  79   2.0000      -8.103935      -220.5193
  80   2.0000      -6.106465      -166.1654
  81   2.0000      -6.098562      -165.9503
  82   2.0000      -6.096380      -165.8909
  83   2.0000      -6.074729      -165.3018
  84   2.0000      -6.074623      -165.2989
  85   2.0000      -6.070700      -165.1921
  86   2.0000      -6.070494      -165.1865
  87   2.0000      -6.069764      -165.1667
  88   2.0000      -6.066372      -165.0744
  89   2.0000      -6.065651      -165.0548
  90   2.0000      -6.065623      -165.0540
  91   2.0000      -6.065007      -165.0372
  92   2.0000      -6.063948      -165.0084
  93   2.0000      -6.060970      -164.9274
  94   2.0000      -6.060892      -164.9253
  95   2.0000      -6.059304      -164.8820
  96   2.0000      -6.055953      -164.7909
  97   2.0000      -6.055557      -164.7801
  98   2.0000      -1.366898       -37.1952
  99   2.0000      -1.363531       -37.1036
 100   2.0000      -1.351808       -36.7846
 101   2.0000      -1.348421       -36.6924
 102   2.0000      -1.179221       -32.0882
 103   2.0000      -1.178649       -32.0727
 104   2.0000      -1.160776       -31.5863
 105   2.0000      -1.152993       -31.3745
 106   2.0000      -1.143496       -31.1161
 107   2.0000      -1.068522       -29.0760
 108   2.0000      -1.065065       -28.9819
 109   2.0000      -1.062560       -28.9137
 110   2.0000      -1.056434       -28.7470
 111   2.0000      -1.045319       -28.4446
 112   2.0000      -1.044561       -28.4239
 113   2.0000      -1.036222       -28.1970
 114   2.0000      -1.034532       -28.1511
 115   2.0000      -1.027173       -27.9508
 116   2.0000      -1.014669       -27.6106
 117   2.0000      -1.007801       -27.4237
 118   2.0000      -1.002441       -27.2778
 119   2.0000      -0.997943       -27.1554
 120   2.0000      -0.990889       -26.9635
 121   2.0000      -0.977000       -26.5855
 122   2.0000      -0.952109       -25.9082
 123   2.0000      -0.945812       -25.7368
 124   2.0000      -0.945723       -25.7344
 125   2.0000      -0.940765       -25.5995
 126   2.0000      -0.938707       -25.5435
 127   2.0000      -0.932384       -25.3714
 128   2.0000      -0.924653       -25.1611
 129   2.0000      -0.923549       -25.1310
 130   2.0000      -0.916853       -24.9488
 131   2.0000      -0.913639       -24.8614
 132   2.0000      -0.902203       -24.5502
 133   2.0000      -0.891170       -24.2500
 134   2.0000      -0.880318       -23.9547
 135   2.0000      -0.872388       -23.7389
 136   2.0000      -0.865579       -23.5536
 137   2.0000      -0.861689       -23.4478
 138   2.0000      -0.852475       -23.1970
 139   2.0000      -0.842139       -22.9158
 140   2.0000      -0.834086       -22.6966
 141   2.0000      -0.830458       -22.5979
 142   2.0000      -0.815022       -22.1779
 143   2.0000      -0.813659       -22.1408
 144   2.0000      -0.804525       -21.8922
 145   2.0000      -0.793962       -21.6048
 146   2.0000      -0.787871       -21.4391
 147   2.0000      -0.784849       -21.3568
 148   2.0000      -0.769337       -20.9347
 149   2.0000      -0.766532       -20.8584
 150   2.0000      -0.758550       -20.6412
 151   2.0000      -0.751449       -20.4480
 152   2.0000      -0.748254       -20.3610
 153   2.0000      -0.747131       -20.3305
 154   2.0000      -0.745647       -20.2901
 155   2.0000      -0.741472       -20.1765
 156   2.0000      -0.731890       -19.9158
 157   2.0000      -0.717802       -19.5324
 158   2.0000      -0.709973       -19.3194
 159   2.0000      -0.701422       -19.0867
 160   2.0000      -0.699058       -19.0223
 161   2.0000      -0.693452       -18.8698
 162   2.0000      -0.689807       -18.7706
 163   2.0000      -0.683303       -18.5936
 164   2.0000      -0.682276       -18.5657
 165   2.0000      -0.680475       -18.5167
 166   2.0000      -0.674238       -18.3470
 167   2.0000      -0.672827       -18.3086
 168   2.0000      -0.661566       -18.0021
 169   2.0000      -0.660186       -17.9646
 170   2.0000      -0.651278       -17.7222
 171   2.0000      -0.650386       -17.6979
 172   2.0000      -0.643490       -17.5102
 173   2.0000      -0.637669       -17.3519
 174   2.0000      -0.631638       -17.1877
 175   2.0000      -0.630314       -17.1517
 176   2.0000      -0.629265       -17.1232
 177   2.0000      -0.627267       -17.0688
 178   2.0000      -0.624018       -16.9804
 179   2.0000      -0.623948       -16.9785
 180   2.0000      -0.617015       -16.7898
 181   2.0000      -0.614549       -16.7227
 182   2.0000      -0.609232       -16.5781
 183   2.0000      -0.604352       -16.4453
 184   2.0000      -0.602380       -16.3916
 185   2.0000      -0.597375       -16.2554
 186   2.0000      -0.590176       -16.0595
 187   2.0000      -0.588977       -16.0269
 188   2.0000      -0.587020       -15.9736
 189   2.0000      -0.586095       -15.9484
 190   2.0000      -0.585067       -15.9205
 191   2.0000      -0.582853       -15.8602
 192   2.0000      -0.580523       -15.7968
 193   2.0000      -0.579275       -15.7629
 194   2.0000      -0.577267       -15.7082
 195   2.0000      -0.575908       -15.6713
 196   2.0000      -0.573441       -15.6041
 197   2.0000      -0.570773       -15.5315
 198   2.0000      -0.569283       -15.4910
 199   2.0000      -0.566817       -15.4239
 200   2.0000      -0.565369       -15.3845
 201   2.0000      -0.561485       -15.2788
 202   2.0000      -0.556611       -15.1462
 203   2.0000      -0.554701       -15.0942
 204   2.0000      -0.554497       -15.0886
 205   2.0000      -0.549598       -14.9553
 206   2.0000      -0.542940       -14.7742
 207   2.0000      -0.540302       -14.7024
 208   2.0000      -0.537107       -14.6154
 209   2.0000      -0.536797       -14.6070
 210   2.0000      -0.534532       -14.5453
 211   2.0000      -0.532958       -14.5025
 212   2.0000      -0.530536       -14.4366
 213   2.0000      -0.530349       -14.4315
 214   2.0000      -0.527431       -14.3521
 215   2.0000      -0.525820       -14.3083
 216   2.0000      -0.522613       -14.2210
 217   2.0000      -0.522070       -14.2062
 218   2.0000      -0.518289       -14.1034
 219   2.0000      -0.517587       -14.0843
 220   2.0000      -0.513688       -13.9782
 221   2.0000      -0.509727       -13.8704
 222   2.0000      -0.505339       -13.7510
 223   2.0000      -0.502878       -13.6840
 224   2.0000      -0.498825       -13.5737
 225   2.0000      -0.498382       -13.5617
 226   2.0000      -0.497146       -13.5280
 227   2.0000      -0.495209       -13.4753
 228   2.0000      -0.494220       -13.4484
 229   2.0000      -0.492159       -13.3923
 230   2.0000      -0.491688       -13.3795
 231   2.0000      -0.490104       -13.3364
 232   2.0000      -0.489111       -13.3094
 233   2.0000      -0.487748       -13.2723
 234   2.0000      -0.485060       -13.1991
 235   2.0000      -0.482562       -13.1312
 236   2.0000      -0.480720       -13.0810
 237   2.0000      -0.479712       -13.0536
 238   2.0000      -0.475539       -12.9401
 239   2.0000      -0.471018       -12.8170
 240   2.0000      -0.467854       -12.7310
 241   2.0000      -0.467165       -12.7122
 242   2.0000      -0.466314       -12.6891
 243   2.0000      -0.465917       -12.6783
 244   2.0000      -0.464812       -12.6482
 245   2.0000      -0.462184       -12.5767
 246   2.0000      -0.459538       -12.5047
 247   2.0000      -0.456868       -12.4320
 248   2.0000      -0.455675       -12.3995
 249   2.0000      -0.452880       -12.3235
 250   2.0000      -0.451668       -12.2905
 251   2.0000      -0.448765       -12.2115
 252   2.0000      -0.447509       -12.1773
 253   2.0000      -0.445818       -12.1313
 254   2.0000      -0.441107       -12.0031
 255   2.0000      -0.438684       -11.9372
 256   2.0000      -0.435571       -11.8525
 257   2.0000      -0.430947       -11.7267
 258   2.0000      -0.428091       -11.6490
 259   2.0000      -0.409299       -11.1376
 260   2.0000      -0.400147       -10.8885
 261   2.0000      -0.398934       -10.8555
 262   2.0000      -0.390125       -10.6159
 263   2.0000      -0.384158       -10.4535
 264   2.0000      -0.383480       -10.4350
 265   2.0000      -0.380054       -10.3418
 266   2.0000      -0.371996       -10.1225
 267   2.0000      -0.370439       -10.0802
 268   2.0000      -0.362324        -9.8593
 269   2.0000      -0.352868        -9.6020
 270   2.0000      -0.348460        -9.4821
 271   2.0000      -0.342417        -9.3176
 272   2.0000      -0.334721        -9.1082
 273   2.0000      -0.321664        -8.7529
 274   2.0000      -0.309570        -8.4238
 275   2.0000      -0.303799        -8.2668
 276   2.0000      -0.267997        -7.2926
 277   0.0000      -0.077121        -2.0986
 278   0.0000      -0.068574        -1.8660
 279   0.0000      -0.044894        -1.2216
 280   0.0000      -0.040825        -1.1109
 281   0.0000      -0.022132        -0.6022

MULLIKEN ATOMIC CHARGES
-----------------------
   0 C :   -0.039898
   1 C :   -0.135626
   2 S :    0.206678
   3 C :   -0.062823
   4 C :    0.057761
   5 N :   -0.252521
   6 C :    0.051929
   7 C :    0.094155
   8 C :   -0.082495
   9 C :    0.008514
  10 N :   -0.298233
  11 S :    0.481955
  12 N :   -0.300770
  13 C :    0.023201
  14 C :   -0.100135
  15 C :    0.098187
  16 N :   -0.285122
  17 C :    0.057390
  18 C :   -0.048746
  19 C :    0.050243
  20 C :   -0.077675
  21 S :    0.232899
  22 C :   -0.129457
  23 C :   -0.040709
  24 C :   -0.037061
  25 C :    0.007978
  26 C :   -0.154403
  27 C :    0.289073
  28 C :   -0.380657
  29 C :   -0.132025
  30 N :    0.108827
  31 C :   -0.117967
  32 N :    0.088545
  33 C :    0.023342
  34 C :   -0.084712
  35 C :    0.242831
  36 F :   -0.180308
  37 C :    0.241551
  38 C :   -0.092928
  39 C :   -0.055658
  40 C :    0.229621
  41 O :   -0.196425
  42 S :    0.129364
  43 C :   -0.050960
  44 C :   -0.038002
  45 C :   -0.089022
  46 C :   -0.113008
  47 S :    0.212659
  48 F :   -0.183231
  49 C :    0.203188
  50 O :   -0.169612
  51 C :   -0.054103
  52 C :   -0.091472
  53 C :    0.242375
  54 C :    0.245222
  55 F :   -0.179780
  56 C :   -0.086917
  57 C :    0.029553
  58 C :    0.246610
  59 C :   -0.356322
  60 C :   -0.148997
  61 N :    0.121446
  62 C :   -0.128445
  63 N :    0.109948
  64 C :   -0.141134
  65 C :    0.042658
  66 F :   -0.182532
  67 C :    0.014727
  68 C :   -0.202176
  69 S :    0.145685
  70 C :    0.019802
  71 C :   -0.028338
  72 C :    0.019589
  73 C :   -0.015026
  74 H :    0.037907
  75 H :    0.058224
  76 H :    0.038055
  77 H :    0.062374
  78 H :    0.053165
  79 H :    0.052645
  80 H :    0.054168
  81 H :    0.047390
  82 H :    0.053928
  83 H :    0.047865
  84 H :   -0.006317
  85 H :    0.044966
  86 H :    0.042183
  87 H :    0.043303
  88 H :    0.046448
  89 H :    0.056259
  90 H :    0.031319
  91 H :    0.061656
  92 H :    0.043331
  93 H :    0.044029
  94 H :    0.037056
  95 H :    0.030696
  96 H :    0.058733
  97 H :    0.054410
  98 H :    0.034361
  99 H :    0.039767
Sum of atomic charges:   -0.0000000

LOEWDIN ATOMIC CHARGES
----------------------
   0 C :   -0.190000
   1 C :   -0.189695
   2 S :    0.430204
   3 C :   -0.170609
   4 C :   -0.042888
   5 N :    0.042534
   6 C :    0.036522
   7 C :    0.013997
   8 C :   -0.083113
   9 C :   -0.050946
  10 N :   -0.286346
  11 S :    0.600694
  12 N :   -0.285251
  13 C :   -0.054775
  14 C :   -0.074520
  15 C :    0.012487
  16 N :    0.008160
  17 C :    0.041858
  18 C :   -0.068203
  19 C :   -0.039808
  20 C :   -0.171662
  21 S :    0.445160
  22 C :   -0.217400
  23 C :   -0.184800
  24 C :   -0.061807
  25 C :    0.065896
  26 C :   -0.131693
  27 C :    0.083290
  28 C :   -0.154273
  29 C :   -0.015528
  30 N :   -0.054929
  31 C :   -0.011504
  32 N :   -0.062278
  33 C :   -0.019672
  34 C :   -0.017407
  35 C :    0.077051
  36 F :   -0.047691
  37 C :    0.074643
  38 C :   -0.006416
  39 C :   -0.048808
  40 C :    0.091311
  41 O :   -0.163868
  42 S :    0.399768
  43 C :   -0.206521
  44 C :   -0.190225
  45 C :   -0.010211
  46 C :   -0.194389
  47 S :    0.485744
  48 F :   -0.049110
  49 C :    0.089496
  50 O :   -0.132080
  51 C :   -0.048290
  52 C :   -0.006815
  53 C :    0.075275
  54 C :    0.077673
  55 F :   -0.046737
  56 C :   -0.017697
  57 C :   -0.020673
  58 C :    0.076484
  59 C :   -0.143325
  60 C :   -0.020350
  61 N :   -0.050010
  62 C :   -0.015045
  63 N :   -0.049718
  64 C :   -0.115193
  65 C :    0.056598
  66 F :   -0.048436
  67 C :    0.000677
  68 C :   -0.191868
  69 S :    0.413205
  70 C :   -0.036182
  71 C :   -0.051604
  72 C :   -0.033843
  73 C :   -0.043967
  74 H :    0.027798
  75 H :    0.030018
  76 H :    0.027202
  77 H :    0.036110
  78 H :    0.014775
  79 H :    0.029289
  80 H :    0.040188
  81 H :    0.027515
  82 H :    0.037321
  83 H :    0.028268
  84 H :    0.046884
  85 H :    0.053975
  86 H :    0.055892
  87 H :    0.056054
  88 H :    0.054213
  89 H :    0.047128
  90 H :    0.032690
  91 H :    0.042001
  92 H :    0.030383
  93 H :    0.031863
  94 H :    0.018303
  95 H :    0.030334
  96 H :    0.040173
  97 H :    0.035221
  98 H :    0.027913
  99 H :    0.027946

  Mayer bond orders larger than 0.100000
B(  0-C ,  1-C ) :   1.4473 B(  0-C ,  4-C ) :   1.2925 B(  0-C , 69-S ) :   1.0769
B(  1-C ,  2-S ) :   1.0427 B(  1-C , 67-C ) :   1.3500 B(  2-S ,  3-C ) :   1.0370
B(  3-C ,  4-C ) :   1.4096 B(  3-C ,  8-C ) :   1.3753 B(  4-C ,  5-N ) :   1.1442
B(  5-N ,  6-C ) :   0.9248 B(  5-N ,  7-C ) :   1.1779 B(  6-C , 24-C ) :   1.0886
B(  6-C , 74-H ) :   0.9485 B(  6-C , 75-H ) :   0.9457 B(  7-C ,  8-C ) :   1.3696
B(  7-C , 15-C ) :   1.1469 B(  8-C ,  9-C ) :   1.1396 B(  9-C , 10-N ) :   1.6117
B(  9-C , 13-C ) :   1.1443 B( 10-N , 11-S ) :   1.2294 B( 10-N , 12-N ) :   0.1295
B( 11-S , 12-N ) :   1.2307 B( 12-N , 13-C ) :   1.6164 B( 13-C , 14-C ) :   1.1269
B( 14-C , 15-C ) :   1.4342 B( 14-C , 20-C ) :   1.3509 B( 15-C , 16-N ) :   1.1254
B( 16-N , 17-C ) :   0.9151 B( 16-N , 19-C ) :   1.1179 B( 17-C , 18-C ) :   1.0840
B( 17-C , 76-H ) :   0.9548 B( 17-C , 77-H ) :   0.9513 B( 18-C , 78-H ) :   0.9561
B( 18-C , 79-H ) :   0.9675 B( 18-C , 80-H ) :   0.9642 B( 19-C , 20-C ) :   1.4307
B( 19-C , 23-C ) :   1.3438 B( 20-C , 21-S ) :   1.0440 B( 21-S , 22-C ) :   1.0473
B( 22-C , 23-C ) :   1.4930 B( 22-C , 44-C ) :   1.3669 B( 23-C , 42-S ) :   1.0261
B( 24-C , 81-H ) :   0.9650 B( 24-C , 82-H ) :   0.9687 B( 24-C , 83-H ) :   0.9623
B( 25-C , 26-C ) :   1.5213 B( 25-C , 46-C ) :   1.3251 B( 25-C , 84-H ) :   0.9298
B( 26-C , 27-C ) :   1.1092 B( 26-C , 40-C ) :   0.9808 B( 27-C , 28-C ) :   1.6256
B( 27-C , 33-C ) :   1.0143 B( 28-C , 29-C ) :   1.1295 B( 28-C , 31-C ) :   1.1398
B( 29-C , 30-N ) :   2.9735 B( 31-C , 32-N ) :   2.9502 B( 33-C , 34-C ) :   1.3374
B( 33-C , 39-C ) :   1.3440 B( 34-C , 35-C ) :   1.3483 B( 34-C , 85-H ) :   0.9882
B( 35-C , 36-F ) :   1.1130 B( 35-C , 37-C ) :   1.2966 B( 37-C , 38-C ) :   1.3265
B( 37-C , 48-F ) :   1.1012 B( 38-C , 39-C ) :   1.3470 B( 38-C , 86-H ) :   1.0151
B( 39-C , 40-C ) :   0.9660 B( 40-C , 41-O ) :   2.1301 B( 42-S , 43-C ) :   1.0142
B( 43-C , 44-C ) :   1.4007 B( 43-C , 45-C ) :   1.4338 B( 44-C , 47-S ) :   1.0855
B( 45-C , 46-C ) :   1.3829 B( 45-C , 72-C ) :   1.0535 B( 46-C , 47-S ) :   1.0506
B( 49-C , 50-O ) :   2.1747 B( 49-C , 51-C ) :   0.9559 B( 49-C , 64-C ) :   0.9668
B( 51-C , 52-C ) :   1.3472 B( 51-C , 57-C ) :   1.3416 B( 52-C , 53-C ) :   1.3276
B( 52-C , 87-H ) :   1.0147 B( 53-C , 54-C ) :   1.2933 B( 53-C , 66-F ) :   1.1015
B( 54-C , 55-F ) :   1.1125 B( 54-C , 56-C ) :   1.3506 B( 56-C , 57-C ) :   1.3325
B( 56-C , 88-H ) :   0.9901 B( 57-C , 58-C ) :   1.0249 B( 58-C , 59-C ) :   1.6693
B( 58-C , 64-C ) :   1.0783 B( 59-C , 60-C ) :   1.1306 B( 59-C , 62-C ) :   1.1214
B( 60-C , 61-N ) :   3.0006 B( 62-C , 63-N ) :   2.9801 B( 64-C , 65-C ) :   1.6020
B( 65-C , 68-C ) :   1.2008 B( 65-C , 89-H ) :   0.9387 B( 67-C , 68-C ) :   1.4939
B( 67-C , 70-C ) :   1.0586 B( 68-C , 69-S ) :   1.0364 B( 70-C , 71-C ) :   1.0802
B( 70-C , 90-H ) :   0.9288 B( 70-C , 91-H ) :   0.9166 B( 71-C , 92-H ) :   0.9706
B( 71-C , 93-H ) :   0.9701 B( 71-C , 94-H ) :   0.9697 B( 72-C , 73-C ) :   1.0891
B( 72-C , 95-H ) :   0.9327 B( 72-C , 96-H ) :   0.9128 B( 73-C , 97-H ) :   0.9711
B( 73-C , 98-H ) :   0.9690 B( 73-C , 99-H ) :   0.9741

-----------------------------------------------------------------------------
         ABSORPTION SPECTRUM VIA TRANSITION ELECTRIC DIPOLE MOMENTS
-----------------------------------------------------------------------------
State   Energy  Wavelength   fosc         T2         TX        TY        TZ
        (cm-1)    (nm)                  (au**2)     (au)      (au)      (au)
-----------------------------------------------------------------------------
   0   19612.3    509.9   2.371554116  39.80893   2.49149   5.67963   1.15895
   1   24937.1    401.0   1.596081196  21.07097   3.87263  -2.45705  -0.19137
   2   28572.4    350.0   0.007435401   0.08567   0.23466   0.03788  -0.17079
   3   29194.7    342.5   0.163514364   1.84386  -0.91378   1.00204   0.06917
   4   30483.9    328.0   0.136662567   1.47589  -0.34527  -0.08427  -1.16171
   5   31079.4    321.8   0.035148060   0.37231  -0.59805  -0.12020   0.01402
   6   31168.7    320.8   0.183918265   1.94259   0.33507   0.80011  -1.09094
   7   32629.8    306.5   0.039721164   0.40076   0.51534  -0.02313   0.36695
   8   34185.8    292.5   0.010185950   0.09809   0.11706  -0.16102  -0.24178
   9   35110.6    284.8   0.258352941   2.42242  -0.70901  -0.20217  -1.37071
  10   36926.2    270.8   0.763401200   6.80604  -0.50144   0.65257   2.47563
  11   37227.9    268.6   0.137191481   1.21320   0.49938  -0.53074  -0.82591
  12   38218.9    261.7   0.102845597   0.88590  -0.34959   0.63164  -0.60391
  13   38915.0    257.0   0.109212222   0.92391  -0.54653  -0.07983  -0.78667
  14   39265.2    254.7   0.094055550   0.78859  -0.58354  -0.46027  -0.48603
  15   39619.7    252.4   0.040918696   0.34001  -0.00401   0.54469   0.20810

Dispersion correction           -0.065673876
FINAL SINGLE POINT ENERGY     -5446.403972358000

DIPOLE MOMENT
-------------
                                X             Y             Z
Electronic contribution:     23.97325     -24.01375     -64.75631
Nuclear contribution   :    -26.13296      25.23867      65.77528
                        -----------------------------------------
Total Dipole Moment    :     -2.15971       1.22492       1.01897
                        -----------------------------------------
Magnitude (a.u.)       :      2.68386
Magnitude (Debye)      :      6.82182

Rotational constants in cm-1:     0.000981     0.000288     0.000259
Rotational constants in MHz :    29.423067     8.646668     7.775310

                             ****ORCA TERMINATED NORMALLY****
TOTAL RUN TIME: 0 days 0 hours 10 minutes 9 seconds 929 msec
