                         Program Version 4.2.0 -  RELEASE  -
|  1> # ORCA input file
|  2> # SCF done       -210.420389800840          0.000861275445
|  3> ! wb97x-d3 def2-SVP def2/J RIJCOSX Grid4 TightSCF
|  4> %maxcore 5000
|  5> %tddft
|  6>     Mode sTDA
|  7>     Ethresh 5.0
|  8>     maxcore 5000
|  9> end
| 10>
| 11> %pal
| 12>   nprocs 6
| 13>   end
| 14> * xyz 0 1
| 15>    C        2.27058        -2.05026         3.46236
| 16>    O        3.13695        -1.23559         3.68825
| 17>    C        1.09085        -2.37439         4.29408
| 18>    C        0.68005        -1.80185         5.46256
| 19>    C       -0.50578        -2.26641         6.07571
| 20>    C       -1.24711        -3.31632         5.46019
| 21>    C       -0.79313        -3.89514         4.25275
| 22>    C        0.36176        -3.43370         3.68189
| 23>    C        1.08748        -3.86115         2.48872
| 24>    C        0.97272        -5.09214         1.89279
| 25>    C        1.91477        -5.58964         0.96923
| 26>    N        2.68970        -6.04676         0.25549
| 27>    C       -0.04214        -6.01993         2.19276
| 28>    N       -0.86949        -6.79600         2.37246
| 29>    C        2.13375        -2.89540         2.25044
| 30>    C        2.88150        -2.61431         1.14251
| 31>    C        2.63471        -2.95255        -0.20214
| 32>    S        1.01357        -3.38084        -0.75540
| 33>    C        1.57882        -3.53688        -2.37508
| 34>    C        2.94891        -3.25017        -2.46516
| 35>    C        3.54752        -2.90621        -1.25144
| 36>    C        4.98768        -2.53553        -1.12259
| 37>    C        5.17454        -1.03262        -1.35006
| 38>    S        3.58220        -3.41088        -4.08749
| 39>    C        2.00681        -3.86835        -4.62854
| 40>    C        1.04081        -3.88666        -3.61435
| 41>    N       -0.17165        -4.26457        -4.12483
| 42>    C       -1.20698        -4.71087        -3.21729
| 43>    C       -1.36225        -6.22877        -3.24865
| 44>    C       -0.00284        -4.50548        -5.47967
| 45>    C        1.36749        -4.27914        -5.80495
| 46>    C        1.88944        -4.53822        -7.09171
| 47>    N        3.13414        -4.40300        -7.52119
| 48>    S        3.20259        -4.90432        -9.05862
| 49>    N        1.64565        -5.30884        -9.23612
| 50>    C        1.01687        -5.06574        -8.09708
| 51>    C       -0.35677        -5.20772        -7.79968
| 52>    C       -0.89680        -4.87629        -6.51950
| 53>    N       -2.27218        -5.00628        -6.58658
| 54>    C       -3.30996        -4.50525        -5.71348
| 55>    C       -3.22730        -2.98875        -5.55959
| 56>    C       -2.59673        -5.40995        -7.85310
| 57>    C       -1.43359        -5.56578        -8.61829
| 58>    S       -1.72686        -6.07741       -10.24341
| 59>    C       -3.44784        -6.05908        -9.90147
| 60>    C       -3.75768        -5.68036        -8.58222
| 61>    S       -5.45762        -5.64411        -8.30324
| 62>    C       -5.75396        -6.13977        -9.97226
| 63>    C       -4.55691        -6.32251       -10.69120
| 64>    C       -4.45058        -6.79070       -12.10519
| 65>    C       -4.54844        -8.31714       -12.18088
| 66>    C       -7.01482        -6.31618       -10.54392
| 67>    C       -8.27690        -6.15859       -10.01717
| 68>    C       -9.51447        -6.35027       -10.74457
| 69>    C       -9.66620        -6.73947       -12.05231
| 70>    C      -10.91471        -6.89177       -12.69042
| 71>    N      -11.89535        -7.03212       -13.27080
| 72>    C       -8.62381        -7.04202       -12.95199
| 73>    N       -7.83433        -7.30916       -13.74367
| 74>    C      -10.61431        -6.04678        -9.82957
| 75>    C      -11.97298        -6.05652       -10.00082
| 76>    C      -12.81281        -5.70494        -8.91838
| 77>    C      -12.25174        -5.34559        -7.65919
| 78>    C      -10.84736        -5.34422        -7.50437
| 79>    C      -10.06445        -5.68619        -8.56807
| 80>    C       -8.59401        -5.74906        -8.64959
| 81>    O       -7.81464        -5.49903        -7.74441
| 82>    C       -2.43045        -3.77151         6.07527
| 83>    C       -2.85620        -3.21358         7.24784
| 84>    C       -2.12200        -2.17630         7.85626
| 85>    C       -0.97124        -1.71168         7.28365
| 86>    C      -13.10780        -4.99762        -6.59675
| 87>    C      -14.21385        -5.70300        -9.06914
| 88>    F       -3.98120        -3.64926         7.83127
| 89>    F       -2.56396        -1.64624         9.00533
| 90>    F      -15.27629        -4.67144        -5.76282
| 91>    C      -14.46298        -5.00450        -6.77495
| 92>    C      -15.01942        -5.35955        -8.01965
| 93>    F      -16.35133        -5.35686        -8.16566
| 94>    H        1.25223        -1.00663         5.91569
| 95>    H       -1.37435        -4.68493         3.80375
| 96>    H        3.73181        -1.96353         1.31995
| 97>    H        5.36353        -2.81328        -0.13797
| 98>    H        5.55484        -3.08499        -1.87623
| 99>    H        4.61881        -0.45875        -0.61188
|100>    H        6.22672        -0.77398        -1.26956
|101>    H        4.82355        -0.75383        -2.34083
|102>    H       -0.89382        -4.40414        -2.21628
|103>    H       -2.14823        -4.20294        -3.42585
|104>    H       -1.61177        -6.58018        -4.24725
|105>    H       -0.43230        -6.70302        -2.94330
|106>    H       -2.14570        -6.53450        -2.56074
|107>    H       -4.26235        -4.76624        -6.18097
|108>    H       -3.27719        -5.01340        -4.74969
|109>    H       -3.36950        -2.51085        -6.52594
|110>    H       -4.00698        -2.64293        -4.88661
|111>    H       -2.26016        -2.68112        -5.16835
|112>    H       -5.22986        -6.34771       -12.72694
|113>    H       -3.48083        -6.47623       -12.49599
|114>    H       -5.50620        -8.66185       -11.79849
|115>    H       -4.45533        -8.63957       -13.21372
|116>    H       -3.75440        -8.77678       -11.59705
|117>    H       -6.97358        -6.61828       -11.58131
|118>    H      -12.43066        -6.32328       -10.93934
|119>    H      -10.40202        -5.07517        -6.55857
|120>    H       -3.00215        -4.56769         5.62450
|121>    H       -0.42066        -0.91714         7.76233
|122>    H      -12.69708        -4.72332        -5.63768
|123>    H      -14.65647        -5.97202       -10.01551
|124> *
|125>
|126>                          ****END OF INPUT****

CARTESIAN COORDINATES (ANGSTROEM)
---------------------------------
  C      2.270580   -2.050260    3.462360
  O      3.136950   -1.235590    3.688250
  C      1.090850   -2.374390    4.294080
  C      0.680050   -1.801850    5.462560
  C     -0.505780   -2.266410    6.075710
  C     -1.247110   -3.316320    5.460190
  C     -0.793130   -3.895140    4.252750
  C      0.361760   -3.433700    3.681890
  C      1.087480   -3.861150    2.488720
  C      0.972720   -5.092140    1.892790
  C      1.914770   -5.589640    0.969230
  N      2.689700   -6.046760    0.255490
  C     -0.042140   -6.019930    2.192760
  N     -0.869490   -6.796000    2.372460
  C      2.133750   -2.895400    2.250440
  C      2.881500   -2.614310    1.142510
  C      2.634710   -2.952550   -0.202140
  S      1.013570   -3.380840   -0.755400
  C      1.578820   -3.536880   -2.375080
  C      2.948910   -3.250170   -2.465160
  C      3.547520   -2.906210   -1.251440
  C      4.987680   -2.535530   -1.122590
  C      5.174540   -1.032620   -1.350060
  S      3.582200   -3.410880   -4.087490
  C      2.006810   -3.868350   -4.628540
  C      1.040810   -3.886660   -3.614350
  N     -0.171650   -4.264570   -4.124830
  C     -1.206980   -4.710870   -3.217290
  C     -1.362250   -6.228770   -3.248650
  C     -0.002840   -4.505480   -5.479670
  C      1.367490   -4.279140   -5.804950
  C      1.889440   -4.538220   -7.091710
  N      3.134140   -4.403000   -7.521190
  S      3.202590   -4.904320   -9.058620
  N      1.645650   -5.308840   -9.236120
  C      1.016870   -5.065740   -8.097080
  C     -0.356770   -5.207720   -7.799680
  C     -0.896800   -4.876290   -6.519500
  N     -2.272180   -5.006280   -6.586580
  C     -3.309960   -4.505250   -5.713480
  C     -3.227300   -2.988750   -5.559590
  C     -2.596730   -5.409950   -7.853100
  C     -1.433590   -5.565780   -8.618290
  S     -1.726860   -6.077410  -10.243410
  C     -3.447840   -6.059080   -9.901470
  C     -3.757680   -5.680360   -8.582220
  S     -5.457620   -5.644110   -8.303240
  C     -5.753960   -6.139770   -9.972260
  C     -4.556910   -6.322510  -10.691200
  C     -4.450580   -6.790700  -12.105190
  C     -4.548440   -8.317140  -12.180880
  C     -7.014820   -6.316180  -10.543920
  C     -8.276900   -6.158590  -10.017170
  C     -9.514470   -6.350270  -10.744570
  C     -9.666200   -6.739470  -12.052310
  C    -10.914710   -6.891770  -12.690420
  N    -11.895350   -7.032120  -13.270800
  C     -8.623810   -7.042020  -12.951990
  N     -7.834330   -7.309160  -13.743670
  C    -10.614310   -6.046780   -9.829570
  C    -11.972980   -6.056520  -10.000820
  C    -12.812810   -5.704940   -8.918380
  C    -12.251740   -5.345590   -7.659190
  C    -10.847360   -5.344220   -7.504370
  C    -10.064450   -5.686190   -8.568070
  C     -8.594010   -5.749060   -8.649590
  O     -7.814640   -5.499030   -7.744410
  C     -2.430450   -3.771510    6.075270
  C     -2.856200   -3.213580    7.247840
  C     -2.122000   -2.176300    7.856260
  C     -0.971240   -1.711680    7.283650
  C    -13.107800   -4.997620   -6.596750
  C    -14.213850   -5.703000   -9.069140
  F     -3.981200   -3.649260    7.831270
  F     -2.563960   -1.646240    9.005330
  F    -15.276290   -4.671440   -5.762820
  C    -14.462980   -5.004500   -6.774950
  C    -15.019420   -5.359550   -8.019650
  F    -16.351330   -5.356860   -8.165660
  H      1.252230   -1.006630    5.915690
  H     -1.374350   -4.684930    3.803750
  H      3.731810   -1.963530    1.319950
  H      5.363530   -2.813280   -0.137970
  H      5.554840   -3.084990   -1.876230
  H      4.618810   -0.458750   -0.611880
  H      6.226720   -0.773980   -1.269560
  H      4.823550   -0.753830   -2.340830
  H     -0.893820   -4.404140   -2.216280
  H     -2.148230   -4.202940   -3.425850
  H     -1.611770   -6.580180   -4.247250
  H     -0.432300   -6.703020   -2.943300
  H     -2.145700   -6.534500   -2.560740
  H     -4.262350   -4.766240   -6.180970
  H     -3.277190   -5.013400   -4.749690
  H     -3.369500   -2.510850   -6.525940
  H     -4.006980   -2.642930   -4.886610
  H     -2.260160   -2.681120   -5.168350
  H     -5.229860   -6.347710  -12.726940
  H     -3.480830   -6.476230  -12.495990
  H     -5.506200   -8.661850  -11.798490
  H     -4.455330   -8.639570  -13.213720
  H     -3.754400   -8.776780  -11.597050
  H     -6.973580   -6.618280  -11.581310
  H    -12.430660   -6.323280  -10.939340
  H    -10.402020   -5.075170   -6.558570
  H     -3.002150   -4.567690    5.624500
  H     -0.420660   -0.917140    7.762330
  H    -12.697080   -4.723320   -5.637680
  H    -14.656470   -5.972020  -10.015510

 Total Charge           Charge          ....    0
 Multiplicity           Mult            ....    1
 Number of Electrons    NEL             ....  578
 Basis Dimension        Dim             .... 1276

ORBITAL ENERGIES
----------------

  NO   OCC          E(Eh)            E(eV)
   0   2.0000     -89.032655     -2422.7017
   1   2.0000     -88.999549     -2421.8009
   2   2.0000     -88.993377     -2421.6329
   3   2.0000     -88.992916     -2421.6204
   4   2.0000     -88.989555     -2421.5289
   5   2.0000     -24.830275      -675.6661
   6   2.0000     -24.830102      -675.6614
   7   2.0000     -24.829969      -675.6578
   8   2.0000     -24.828797      -675.6259
   9   2.0000     -19.256455      -523.9948
  10   2.0000     -19.250093      -523.8217
  11   2.0000     -14.527420      -395.3112
  12   2.0000     -14.527170      -395.3044
  13   2.0000     -14.471185      -393.7810
  14   2.0000     -14.470912      -393.7735
  15   2.0000     -14.453005      -393.2863
  16   2.0000     -14.452123      -393.2623
  17   2.0000     -14.446591      -393.1117
  18   2.0000     -14.446477      -393.1086
  19   2.0000     -10.414393      -283.3900
  20   2.0000     -10.414015      -283.3798
  21   2.0000     -10.413960      -283.3783
  22   2.0000     -10.413012      -283.3524
  23   2.0000     -10.403372      -283.0902
  24   2.0000     -10.400418      -283.0098
  25   2.0000     -10.379292      -282.4349
  26   2.0000     -10.378942      -282.4254
  27   2.0000     -10.378427      -282.4114
  28   2.0000     -10.377664      -282.3906
  29   2.0000     -10.376022      -282.3459
  30   2.0000     -10.372223      -282.2425
  31   2.0000     -10.371804      -282.2311
  32   2.0000     -10.370407      -282.1931
  33   2.0000     -10.363328      -282.0005
  34   2.0000     -10.360783      -281.9312
  35   2.0000     -10.359572      -281.8983
  36   2.0000     -10.359459      -281.8952
  37   2.0000     -10.357969      -281.8547
  38   2.0000     -10.355419      -281.7853
  39   2.0000     -10.355092      -281.7764
  40   2.0000     -10.354843      -281.7696
  41   2.0000     -10.354763      -281.7674
  42   2.0000     -10.353412      -281.7307
  43   2.0000     -10.352385      -281.7027
  44   2.0000     -10.350956      -281.6638
  45   2.0000     -10.348641      -281.6008
  46   2.0000     -10.348398      -281.5942
  47   2.0000     -10.347700      -281.5752
  48   2.0000     -10.346793      -281.5506
  49   2.0000     -10.346322      -281.5377
  50   2.0000     -10.345293      -281.5097
  51   2.0000     -10.344966      -281.5008
  52   2.0000     -10.344517      -281.4886
  53   2.0000     -10.344411      -281.4857
  54   2.0000     -10.343950      -281.4732
  55   2.0000     -10.343494      -281.4608
  56   2.0000     -10.343378      -281.4576
  57   2.0000     -10.342333      -281.4292
  58   2.0000     -10.340385      -281.3762
  59   2.0000     -10.336749      -281.2772
  60   2.0000     -10.336565      -281.2722
  61   2.0000     -10.336183      -281.2618
  62   2.0000     -10.335563      -281.2450
  63   2.0000     -10.334232      -281.2088
  64   2.0000     -10.333836      -281.1980
  65   2.0000     -10.333642      -281.1927
  66   2.0000     -10.332760      -281.1687
  67   2.0000     -10.330452      -281.1059
  68   2.0000     -10.329395      -281.0771
  69   2.0000     -10.329055      -281.0679
  70   2.0000     -10.327893      -281.0363
  71   2.0000     -10.327476      -281.0249
  72   2.0000     -10.326235      -280.9911
  73   2.0000     -10.321787      -280.8701
  74   2.0000     -10.317924      -280.7650
  75   2.0000     -10.316954      -280.7386
  76   2.0000     -10.315689      -280.7042
  77   2.0000     -10.303113      -280.3620
  78   2.0000     -10.295199      -280.1466
  79   2.0000      -8.143799      -221.6040
  80   2.0000      -8.111940      -220.7371
  81   2.0000      -8.105999      -220.5754
  82   2.0000      -8.103799      -220.5156
  83   2.0000      -8.102283      -220.4743
  84   2.0000      -6.105577      -166.1412
  85   2.0000      -6.097702      -165.9269
  86   2.0000      -6.095525      -165.8677
  87   2.0000      -6.071928      -165.2256
  88   2.0000      -6.067735      -165.1115
  89   2.0000      -6.066096      -165.0669
  90   2.0000      -6.063970      -165.0090
  91   2.0000      -6.063517      -164.9967
  92   2.0000      -6.062428      -164.9670
  93   2.0000      -6.062015      -164.9558
  94   2.0000      -6.059187      -164.8788
  95   2.0000      -6.058348      -164.8560
  96   2.0000      -6.057154      -164.8235
  97   2.0000      -6.055445      -164.7770
  98   2.0000      -6.053299      -164.7186
  99   2.0000      -1.359590       -36.9963
 100   2.0000      -1.358932       -36.9784
 101   2.0000      -1.344930       -36.5974
 102   2.0000      -1.344204       -36.5777
 103   2.0000      -1.174034       -31.9471
 104   2.0000      -1.167831       -31.7783
 105   2.0000      -1.159944       -31.5637
 106   2.0000      -1.151938       -31.3458
 107   2.0000      -1.145690       -31.1758
 108   2.0000      -1.061200       -28.8767
 109   2.0000      -1.057912       -28.7872
 110   2.0000      -1.054242       -28.6874
 111   2.0000      -1.051559       -28.6144
 112   2.0000      -1.042620       -28.3711
 113   2.0000      -1.041953       -28.3530
 114   2.0000      -1.030763       -28.0485
 115   2.0000      -1.030428       -28.0394
 116   2.0000      -1.020045       -27.7568
 117   2.0000      -1.019654       -27.7462
 118   2.0000      -1.014030       -27.5932
 119   2.0000      -1.007590       -27.4179
 120   2.0000      -0.996030       -27.1033
 121   2.0000      -0.988571       -26.9004
 122   2.0000      -0.969616       -26.3846
 123   2.0000      -0.967967       -26.3397
 124   2.0000      -0.952224       -25.9113
 125   2.0000      -0.941260       -25.6130
 126   2.0000      -0.941179       -25.6108
 127   2.0000      -0.937331       -25.5061
 128   2.0000      -0.936154       -25.4741
 129   2.0000      -0.931394       -25.3445
 130   2.0000      -0.929780       -25.3006
 131   2.0000      -0.928803       -25.2740
 132   2.0000      -0.915333       -24.9075
 133   2.0000      -0.912924       -24.8419
 134   2.0000      -0.900014       -24.4906
 135   2.0000      -0.888093       -24.1662
 136   2.0000      -0.878517       -23.9057
 137   2.0000      -0.877861       -23.8878
 138   2.0000      -0.871794       -23.7227
 139   2.0000      -0.868804       -23.6414
 140   2.0000      -0.864277       -23.5182
 141   2.0000      -0.854858       -23.2619
 142   2.0000      -0.842119       -22.9152
 143   2.0000      -0.837893       -22.8002
 144   2.0000      -0.833228       -22.6733
 145   2.0000      -0.807998       -21.9867
 146   2.0000      -0.804952       -21.9039
 147   2.0000      -0.802064       -21.8253
 148   2.0000      -0.799274       -21.7494
 149   2.0000      -0.793455       -21.5910
 150   2.0000      -0.787634       -21.4326
 151   2.0000      -0.774407       -21.0727
 152   2.0000      -0.762662       -20.7531
 153   2.0000      -0.759064       -20.6552
 154   2.0000      -0.756434       -20.5836
 155   2.0000      -0.754593       -20.5335
 156   2.0000      -0.753662       -20.5082
 157   2.0000      -0.749581       -20.3971
 158   2.0000      -0.742619       -20.2077
 159   2.0000      -0.732552       -19.9337
 160   2.0000      -0.727369       -19.7927
 161   2.0000      -0.720356       -19.6019
 162   2.0000      -0.717171       -19.5152
 163   2.0000      -0.708839       -19.2885
 164   2.0000      -0.701941       -19.1008
 165   2.0000      -0.695038       -18.9129
 166   2.0000      -0.692289       -18.8381
 167   2.0000      -0.689036       -18.7496
 168   2.0000      -0.684198       -18.6180
 169   2.0000      -0.680300       -18.5119
 170   2.0000      -0.676796       -18.4165
 171   2.0000      -0.674969       -18.3669
 172   2.0000      -0.666915       -18.1477
 173   2.0000      -0.664558       -18.0835
 174   2.0000      -0.656097       -17.8533
 175   2.0000      -0.652637       -17.7592
 176   2.0000      -0.648471       -17.6458
 177   2.0000      -0.646728       -17.5984
 178   2.0000      -0.640519       -17.4294
 179   2.0000      -0.636271       -17.3138
 180   2.0000      -0.627982       -17.0883
 181   2.0000      -0.622633       -16.9427
 182   2.0000      -0.621712       -16.9176
 183   2.0000      -0.619563       -16.8592
 184   2.0000      -0.618879       -16.8406
 185   2.0000      -0.616051       -16.7636
 186   2.0000      -0.614641       -16.7252
 187   2.0000      -0.610734       -16.6189
 188   2.0000      -0.607174       -16.5220
 189   2.0000      -0.606351       -16.4997
 190   2.0000      -0.600472       -16.3397
 191   2.0000      -0.591533       -16.0964
 192   2.0000      -0.588823       -16.0227
 193   2.0000      -0.587319       -15.9818
 194   2.0000      -0.585102       -15.9214
 195   2.0000      -0.584147       -15.8954
 196   2.0000      -0.581640       -15.8272
 197   2.0000      -0.580360       -15.7924
 198   2.0000      -0.579669       -15.7736
 199   2.0000      -0.577970       -15.7274
 200   2.0000      -0.577514       -15.7150
 201   2.0000      -0.575608       -15.6631
 202   2.0000      -0.572031       -15.5658
 203   2.0000      -0.568210       -15.4618
 204   2.0000      -0.565677       -15.3928
 205   2.0000      -0.564508       -15.3610
 206   2.0000      -0.563131       -15.3236
 207   2.0000      -0.561897       -15.2900
 208   2.0000      -0.558938       -15.2095
 209   2.0000      -0.556270       -15.1369
 210   2.0000      -0.554169       -15.0797
 211   2.0000      -0.552929       -15.0459
 212   2.0000      -0.549355       -14.9487
 213   2.0000      -0.547182       -14.8896
 214   2.0000      -0.546205       -14.8630
 215   2.0000      -0.545494       -14.8436
 216   2.0000      -0.541629       -14.7385
 217   2.0000      -0.536775       -14.6064
 218   2.0000      -0.535463       -14.5707
 219   2.0000      -0.533718       -14.5232
 220   2.0000      -0.533404       -14.5147
 221   2.0000      -0.532777       -14.4976
 222   2.0000      -0.525458       -14.2984
 223   2.0000      -0.523400       -14.2424
 224   2.0000      -0.521923       -14.2022
 225   2.0000      -0.519907       -14.1474
 226   2.0000      -0.518292       -14.1034
 227   2.0000      -0.514747       -14.0070
 228   2.0000      -0.512245       -13.9389
 229   2.0000      -0.509157       -13.8549
 230   2.0000      -0.507945       -13.8219
 231   2.0000      -0.505733       -13.7617
 232   2.0000      -0.501188       -13.6380
 233   2.0000      -0.500729       -13.6255
 234   2.0000      -0.497594       -13.5402
 235   2.0000      -0.496293       -13.5048
 236   2.0000      -0.495470       -13.4824
 237   2.0000      -0.494437       -13.4543
 238   2.0000      -0.493037       -13.4162
 239   2.0000      -0.490644       -13.3511
 240   2.0000      -0.487197       -13.2573
 241   2.0000      -0.485034       -13.1984
 242   2.0000      -0.484013       -13.1707
 243   2.0000      -0.481146       -13.0926
 244   2.0000      -0.478885       -13.0311
 245   2.0000      -0.478784       -13.0284
 246   2.0000      -0.476872       -12.9763
 247   2.0000      -0.476559       -12.9678
 248   2.0000      -0.476013       -12.9530
 249   2.0000      -0.472257       -12.8508
 250   2.0000      -0.466905       -12.7051
 251   2.0000      -0.465982       -12.6800
 252   2.0000      -0.463177       -12.6037
 253   2.0000      -0.462994       -12.5987
 254   2.0000      -0.461139       -12.5482
 255   2.0000      -0.460930       -12.5425
 256   2.0000      -0.458868       -12.4864
 257   2.0000      -0.458188       -12.4679
 258   2.0000      -0.456203       -12.4139
 259   2.0000      -0.453457       -12.3392
 260   2.0000      -0.452568       -12.3150
 261   2.0000      -0.451307       -12.2807
 262   2.0000      -0.444745       -12.1021
 263   2.0000      -0.442216       -12.0333
 264   2.0000      -0.439277       -11.9533
 265   2.0000      -0.436369       -11.8742
 266   2.0000      -0.434969       -11.8361
 267   2.0000      -0.428007       -11.6467
 268   2.0000      -0.426703       -11.6112
 269   2.0000      -0.424960       -11.5638
 270   2.0000      -0.419319       -11.4102
 271   2.0000      -0.415276       -11.3002
 272   2.0000      -0.399367       -10.8673
 273   2.0000      -0.396218       -10.7816
 274   2.0000      -0.394582       -10.7371
 275   2.0000      -0.379436       -10.3250
 276   2.0000      -0.371588       -10.1114
 277   2.0000      -0.367924       -10.0117
 278   2.0000      -0.367155        -9.9908
 279   2.0000      -0.350053        -9.5254
 280   2.0000      -0.348178        -9.4744
 281   2.0000      -0.347593        -9.4585
 282   2.0000      -0.343577        -9.3492
 283   2.0000      -0.331934        -9.0324
 284   2.0000      -0.329031        -8.9534
 285   2.0000      -0.321336        -8.7440
 286   2.0000      -0.307345        -8.3633
 287   2.0000      -0.305471        -8.3123
 288   2.0000      -0.268835        -7.3154
 289   0.0000      -0.081121        -2.2074
 290   0.0000      -0.069937        -1.9031
 291   0.0000      -0.037469        -1.0196
 292   0.0000      -0.033407        -0.9091
 293   0.0000      -0.022826        -0.6211

MULLIKEN ATOMIC CHARGES
-----------------------
   0 C :    0.205817
   1 O :   -0.174114
   2 C :   -0.039351
   3 C :   -0.050171
   4 C :    0.057340
   5 C :    0.058222
   6 C :   -0.057117
   7 C :    0.015752
   8 C :    0.246316
   9 C :   -0.356891
  10 C :   -0.148229
  11 N :    0.126192
  12 C :   -0.115914
  13 N :    0.099357
  14 C :   -0.182810
  15 C :    0.037912
  16 C :   -0.148056
  17 S :    0.147356
  18 C :   -0.014191
  19 C :   -0.103310
  20 C :   -0.040225
  21 C :    0.010787
  22 C :   -0.024440
  23 S :    0.212506
  24 C :   -0.065188
  25 C :    0.032488
  26 N :   -0.253439
  27 C :    0.067008
  28 C :   -0.050254
  29 C :    0.104455
  30 C :   -0.107014
  31 C :    0.016672
  32 N :   -0.297884
  33 S :    0.482577
  34 N :   -0.297111
  35 C :    0.017486
  36 C :   -0.109856
  37 C :    0.097550
  38 N :   -0.250723
  39 C :    0.066997
  40 C :   -0.049966
  41 C :    0.031459
  42 C :   -0.057615
  43 S :    0.203509
  44 C :   -0.091414
  45 C :   -0.010214
  46 S :    0.177973
  47 C :   -0.095183
  48 C :   -0.088645
  49 C :    0.005609
  50 C :   -0.010543
  51 C :    0.007364
  52 C :   -0.157144
  53 C :    0.309269
  54 C :   -0.390824
  55 C :   -0.121974
  56 N :    0.093092
  57 C :   -0.118868
  58 N :    0.089932
  59 C :    0.027414
  60 C :   -0.055603
  61 C :    0.060115
  62 C :    0.066580
  63 C :   -0.055230
  64 C :   -0.050772
  65 C :    0.239840
  66 O :   -0.213020
  67 C :   -0.105627
  68 C :    0.249460
  69 C :    0.245919
  70 C :   -0.100870
  71 C :   -0.104522
  72 C :   -0.106615
  73 F :   -0.186449
  74 F :   -0.187190
  75 F :   -0.187321
  76 C :    0.247661
  77 C :    0.249601
  78 F :   -0.186728
  79 H :    0.018687
  80 H :    0.018003
  81 H :    0.044720
  82 H :    0.048538
  83 H :    0.049632
  84 H :    0.038546
  85 H :    0.050830
  86 H :    0.038833
  87 H :    0.051359
  88 H :    0.039117
  89 H :    0.049937
  90 H :    0.063464
  91 H :    0.057850
  92 H :    0.061475
  93 H :    0.042455
  94 H :    0.056023
  95 H :    0.054041
  96 H :    0.049276
  97 H :    0.060650
  98 H :    0.039683
  99 H :    0.033480
 100 H :    0.055441
 101 H :    0.035841
 102 H :   -0.009094
 103 H :    0.017471
 104 H :    0.013334
 105 H :    0.035610
 106 H :    0.030319
 107 H :    0.027544
 108 H :    0.037972
Sum of atomic charges:   -0.0000000

LOEWDIN ATOMIC CHARGES
----------------------
   0 C :    0.090967
   1 O :   -0.152422
   2 C :   -0.058279
   3 C :    0.031256
   4 C :   -0.014761
   5 C :   -0.010682
   6 C :    0.013191
   7 C :   -0.022972
   8 C :    0.062776
   9 C :   -0.155424
  10 C :   -0.032086
  11 N :   -0.054328
  12 C :   -0.013867
  13 N :   -0.062443
  14 C :   -0.119737
  15 C :    0.062786
  16 C :   -0.193079
  17 S :    0.438056
  18 C :   -0.183037
  19 C :   -0.195286
  20 C :   -0.004131
  21 C :   -0.031633
  22 C :   -0.047396
  23 S :    0.428163
  24 C :   -0.170629
  25 C :   -0.040411
  26 N :    0.035457
  27 C :    0.040665
  28 C :   -0.062029
  29 C :    0.011332
  30 C :   -0.076892
  31 C :   -0.053729
  32 N :   -0.286726
  33 S :    0.600999
  34 N :   -0.286179
  35 C :   -0.053006
  36 C :   -0.079603
  37 C :    0.012500
  38 N :    0.039969
  39 C :    0.040897
  40 C :   -0.063144
  41 C :   -0.045171
  42 C :   -0.167062
  43 S :    0.415657
  44 C :   -0.198508
  45 C :   -0.192332
  46 S :    0.471444
  47 C :   -0.194412
  48 C :   -0.006691
  49 C :   -0.034027
  50 C :   -0.043558
  51 C :    0.068170
  52 C :   -0.132427
  53 C :    0.083012
  54 C :   -0.158615
  55 C :   -0.012394
  56 N :   -0.063004
  57 C :   -0.012566
  58 N :   -0.064567
  59 C :   -0.026070
  60 C :    0.020512
  61 C :   -0.011652
  62 C :   -0.013945
  63 C :    0.028623
  64 C :   -0.055557
  65 C :    0.092072
  66 O :   -0.178663
  67 C :   -0.033524
  68 C :    0.070785
  69 C :    0.070621
  70 C :   -0.034969
  71 C :   -0.036514
  72 C :   -0.030745
  73 F :   -0.053478
  74 F :   -0.053994
  75 F :   -0.054113
  76 C :    0.071548
  77 C :    0.070326
  78 F :   -0.053198
  79 H :    0.043910
  80 H :    0.040681
  81 H :    0.051061
  82 H :    0.038205
  83 H :    0.038494
  84 H :    0.027843
  85 H :    0.032728
  86 H :    0.028725
  87 H :    0.027283
  88 H :    0.024017
  89 H :    0.028614
  90 H :    0.041717
  91 H :    0.039310
  92 H :    0.030316
  93 H :    0.025208
  94 H :    0.038666
  95 H :    0.037566
  96 H :    0.027913
  97 H :    0.039837
  98 H :    0.034047
  99 H :    0.026102
 100 H :    0.035707
 101 H :    0.028005
 102 H :    0.047434
 103 H :    0.041846
 104 H :    0.041943
 105 H :    0.050035
 106 H :    0.048215
 107 H :    0.047235
 108 H :    0.051221

  Mayer bond orders larger than 0.100000
B(  0-C ,  1-O ) :   2.2399 B(  0-C ,  2-C ) :   0.9214 B(  0-C , 14-C ) :   0.9579
B(  2-C ,  3-C ) :   1.5138 B(  2-C ,  7-C ) :   1.2177 B(  3-C ,  4-C ) :   1.2031
B(  3-C , 79-H ) :   1.0118 B(  4-C ,  5-C ) :   1.2675 B(  4-C , 70-C ) :   1.2046
B(  5-C ,  6-C ) :   1.2230 B(  5-C , 67-C ) :   1.2027 B(  6-C ,  7-C ) :   1.4943
B(  6-C , 80-H ) :   0.9911 B(  7-C ,  8-C ) :   1.0137 B(  8-C ,  9-C ) :   1.6413
B(  8-C , 14-C ) :   1.0635 B(  9-C , 10-C ) :   1.1417 B(  9-C , 12-C ) :   1.1289
B( 10-C , 11-N ) :   3.0191 B( 12-C , 13-N ) :   2.9773 B( 14-C , 15-C ) :   1.6315
B( 15-C , 16-C ) :   1.1919 B( 15-C , 81-H ) :   0.9380 B( 16-C , 17-S ) :   1.0506
B( 16-C , 20-C ) :   1.4627 B( 17-S , 18-C ) :   1.0682 B( 18-C , 19-C ) :   1.4471
B( 18-C , 25-C ) :   1.3193 B( 19-C , 20-C ) :   1.3915 B( 19-C , 23-S ) :   1.0299
B( 20-C , 21-C ) :   1.0533 B( 21-C , 22-C ) :   1.0858 B( 21-C , 82-H ) :   0.9264
B( 21-C , 83-H ) :   0.9333 B( 22-C , 84-H ) :   0.9726 B( 22-C , 85-H ) :   0.9716
B( 22-C , 86-H ) :   0.9707 B( 23-S , 24-C ) :   1.0279 B( 24-C , 25-C ) :   1.4108
B( 24-C , 30-C ) :   1.3847 B( 25-C , 26-N ) :   1.1427 B( 26-N , 27-C ) :   0.9323
B( 26-N , 29-C ) :   1.1548 B( 27-C , 28-C ) :   1.0988 B( 27-C , 87-H ) :   0.9443
B( 27-C , 88-H ) :   0.9472 B( 28-C , 89-H ) :   0.9640 B( 28-C , 90-H ) :   0.9635
B( 28-C , 91-H ) :   0.9684 B( 29-C , 30-C ) :   1.4063 B( 29-C , 37-C ) :   1.1412
B( 30-C , 31-C ) :   1.1330 B( 31-C , 32-N ) :   1.6172 B( 31-C , 35-C ) :   1.1401
B( 32-N , 33-S ) :   1.2301 B( 32-N , 34-N ) :   0.1310 B( 33-S , 34-N ) :   1.2306
B( 34-N , 35-C ) :   1.6169 B( 35-C , 36-C ) :   1.1347 B( 36-C , 37-C ) :   1.3896
B( 36-C , 42-C ) :   1.3930 B( 37-C , 38-N ) :   1.1689 B( 38-N , 39-C ) :   0.9324
B( 38-N , 41-C ) :   1.1410 B( 39-C , 40-C ) :   1.0970 B( 39-C , 92-H ) :   0.9437
B( 39-C , 93-H ) :   0.9471 B( 40-C , 94-H ) :   0.9637 B( 40-C , 95-H ) :   0.9688
B( 40-C , 96-H ) :   0.9649 B( 41-C , 42-C ) :   1.4101 B( 41-C , 45-C ) :   1.3104
B( 42-C , 43-S ) :   1.0197 B( 43-S , 44-C ) :   1.0184 B( 44-C , 45-C ) :   1.4070
B( 44-C , 48-C ) :   1.4589 B( 45-C , 46-S ) :   1.0393 B( 46-S , 47-C ) :   1.0347
B( 47-C , 48-C ) :   1.3772 B( 47-C , 51-C ) :   1.3315 B( 48-C , 49-C ) :   1.0547
B( 49-C , 50-C ) :   1.0887 B( 49-C , 97-H ) :   0.9131 B( 49-C , 98-H ) :   0.9328
B( 50-C , 99-H ) :   0.9729 B( 50-C ,100-H ) :   0.9711 B( 50-C ,101-H ) :   0.9698
B( 51-C , 52-C ) :   1.5008 B( 51-C ,102-H ) :   0.9259 B( 52-C , 53-C ) :   1.1114
B( 52-C , 65-C ) :   0.9834 B( 53-C , 54-C ) :   1.6121 B( 53-C , 59-C ) :   0.9953
B( 54-C , 55-C ) :   1.1376 B( 54-C , 57-C ) :   1.1420 B( 55-C , 56-N ) :   2.9540
B( 57-C , 58-N ) :   2.9488 B( 59-C , 60-C ) :   1.4919 B( 59-C , 64-C ) :   1.2184
B( 60-C , 61-C ) :   1.2236 B( 60-C ,103-H ) :   0.9870 B( 61-C , 62-C ) :   1.2653
B( 61-C , 72-C ) :   1.2031 B( 62-C , 63-C ) :   1.1954 B( 62-C , 71-C ) :   1.2044
B( 63-C , 64-C ) :   1.5100 B( 63-C ,104-H ) :   1.0125 B( 64-C , 65-C ) :   0.9611
B( 65-C , 66-O ) :   2.1090 B( 67-C , 68-C ) :   1.4593 B( 67-C , 70-C ) :   0.1030
B( 67-C ,105-H ) :   1.0028 B( 68-C , 69-C ) :   1.1901 B( 68-C , 73-F ) :   1.1041
B( 69-C , 70-C ) :   1.4613 B( 69-C , 74-F ) :   1.1029 B( 70-C ,106-H ) :   1.0035
B( 71-C , 72-C ) :   0.1029 B( 71-C , 76-C ) :   1.4595 B( 71-C ,107-H ) :   1.0039
B( 72-C , 77-C ) :   1.4571 B( 72-C ,108-H ) :   1.0027 B( 75-F , 76-C ) :   1.1023
B( 76-C , 77-C ) :   1.1917 B( 77-C , 78-F ) :   1.1036

-----------------------------------------------------------------------------
         ABSORPTION SPECTRUM VIA TRANSITION ELECTRIC DIPOLE MOMENTS
-----------------------------------------------------------------------------
State   Energy  Wavelength   fosc         T2         TX        TY        TZ
        (cm-1)    (nm)                  (au**2)     (au)      (au)      (au)
-----------------------------------------------------------------------------
   0   18857.5    530.3   2.138234747  37.32901  -3.57353  -0.57724  -4.92196
   1   24330.5    411.0   1.462410793  19.78766   4.22189   0.98144  -1.00006
   2   27747.5    360.4   0.363869447   4.31716  -1.65009   0.23525   1.24058
   3   29105.6    343.6   0.106620458   1.20598  -0.21916  -0.32826  -1.02479
   4   30356.5    329.4   0.012821907   0.13905  -0.29034  -0.15568   0.17469
   5   30554.2    327.3   0.064221977   0.69197   0.53199   0.14475  -0.62290
   6   31632.4    316.1   0.179671633   1.86992   0.71564   1.02620   0.55199
   7   32283.6    309.8   0.072504999   0.73937  -0.15243  -0.53829  -0.65298
   8   33170.9    301.5   0.232892530   2.31139   1.33656   0.02080  -0.72428
   9   33344.5    299.9   0.052566728   0.51899  -0.70370   0.01532   0.15349
  10   33665.5    297.0   0.260703513   2.54940  -0.71712   0.60730   1.29086
  11   34131.0    293.0   0.088340844   0.85209  -0.77560  -0.33905   0.36822
  12   34789.8    287.4   0.187710243   1.77628   1.07413  -0.22149  -0.75728
  13   35048.1    285.3   1.224881207  11.50549   1.76808  -0.99980  -2.71657
  14   35985.0    277.9   0.130132827   1.19053   0.64490  -0.65341  -0.58966
  15   37580.9    266.1   0.138315139   1.21165  -0.11145   0.50464   0.97189
  16   38284.3    261.2   0.271189928   2.33200   0.47823  -0.78300  -1.22074
  17   39000.3    256.4   0.248532427   2.09793  -0.44767   0.72823   1.16927
  18   39425.7    253.6   0.585380035   4.88803  -1.92301   0.20181   1.07207
  19   39805.2    251.2   0.601754542   4.97686  -1.21749   0.72859   1.72155
  20   40007.6    250.0   0.024543993   0.20197   0.44285   0.06560  -0.03931
  21   40109.1    249.3   0.590768003   4.84897   0.12416  -1.06139  -1.92536

Dispersion correction           -0.070934028
FINAL SINGLE POINT ENERGY     -5279.208623139127

DIPOLE MOMENT
-------------
                                X             Y             Z
Electronic contribution:    -36.56838       0.25949      22.54241
Nuclear contribution   :     37.23081       1.64730     -21.03542
                        -----------------------------------------
Total Dipole Moment    :      0.66243       1.90679       1.50699
                        -----------------------------------------
Magnitude (a.u.)       :      2.51907
Magnitude (Debye)      :      6.40296

Rotational constants in cm-1:     0.000780     0.000280     0.000211
Rotational constants in MHz :    23.376553     8.383532     6.330705

                             ****ORCA TERMINATED NORMALLY****
TOTAL RUN TIME: 0 days 0 hours 13 minutes 30 seconds 885 msec
