                         Program Version 4.2.0 -  RELEASE  -
|  1> # ORCA input file
|  2> # SCF done       -201.203022767949          0.000912076323
|  3> ! wb97x-d3 def2-SVP def2/J RIJCOSX Grid4 TightSCF
|  4> %maxcore 5000
|  5> %tddft
|  6>     Mode sTDA
|  7>     Ethresh 5.0
|  8>     maxcore 5000
|  9> end
| 10>
| 11> %pal
| 12>   nprocs 6
| 13>   end
| 14> * xyz 0 1
| 15>    S        3.22311        -0.15391         2.64488
| 16>    N        2.56735        -1.24840         1.66667
| 17>    C        1.38619        -0.80501         1.24379
| 18>    C        1.07602         0.48641         1.78391
| 19>    N        2.04280         0.93574         2.58016
| 20>    C        0.49354        -1.47103         0.36477
| 21>    C       -0.68723        -0.79135         0.07855
| 22>    C       -0.98901         0.45923         0.60409
| 23>    C       -0.13752         1.14788         1.46354
| 24>    C       -0.42901         2.43713         2.00580
| 25>    C        0.82654        -2.74983        -0.17844
| 26>    C        0.07795        -3.51980        -1.06129
| 27>    C        0.71461        -4.70075        -1.40666
| 28>    C        1.94963        -4.84534        -0.76241
| 29>    S        2.33906        -3.51138         0.24666
| 30>    C        0.42027        -5.89268        -2.28526
| 31>    C        1.63648        -6.74467        -2.00390
| 32>    C        2.51181        -6.08591        -1.12188
| 33>    C        2.10567        -7.96916        -2.42230
| 34>    C        3.34898        -8.28400        -1.86750
| 35>    S        3.91582        -6.99412        -0.79198
| 36>    C       -1.56960         3.20650         1.80741
| 37>    C       -1.51512         4.41435         2.48237
| 38>    C       -0.32827         4.57112         3.20555
| 39>    S        0.72731         3.22449         3.05186
| 40>    C       -2.42589         5.60629         2.66276
| 41>    C       -1.56733         6.47090         3.55432
| 42>    C       -0.35442         5.82146         3.85364
| 43>    C       -1.66414         7.71855         4.12921
| 44>    C       -0.54389         8.04556         4.89785
| 45>    S        0.66521         6.75337         4.85194
| 46>    C        4.19228        -9.39368        -1.99138
| 47>    C        4.12541       -10.51312        -2.79010
| 48>    C        5.11313       -11.57629        -2.75022
| 49>    C        4.83859       -12.48316        -3.86539
| 50>    C        3.67997       -12.04329        -4.52265
| 51>    C        3.16642       -10.81877        -3.86761
| 52>    C        5.50204       -13.61203        -4.32064
| 53>    C        4.98244       -14.27183        -5.42464
| 54>    C        3.82640       -13.82924        -6.06745
| 55>    C        3.15887       -12.70144        -5.61878
| 56>    C        6.10286       -11.76603        -1.82031
| 57>    O        2.16100       -10.22379        -4.20044
| 58>    C        7.01796       -12.84027        -1.85103
| 59>    C        6.35012       -10.96586        -0.68410
| 60>    N        7.79635       -13.68302        -1.81795
| 61>    N        6.62011       -10.39089         0.27337
| 62>    F        5.61163       -15.36031        -5.88307
| 63>    F        3.35949       -14.49871        -7.12923
| 64>    C        0.43728        -5.52939        -3.78725
| 65>    C       -0.88380        -6.60060        -1.88510
| 66>    C       -0.61987        -4.52347        -4.22149
| 67>    C       -0.87200        -7.08134        -0.43865
| 68>    C       -3.70778         5.13163         3.38310
| 69>    C       -2.74377         6.29857         1.32760
| 70>    C       -0.21257         9.18447         5.63975
| 71>    C       -0.97125        10.26973         6.01716
| 72>    C       -0.43117        11.40835         6.73459
| 73>    C       -1.55695        12.21289         7.20870
| 74>    C       -2.74533        11.64180         6.72846
| 75>    C       -2.43472        10.43009         5.93534
| 76>    C       -1.60711        13.35516         7.99203
| 77>    C       -2.85290        13.89662         8.27351
| 78>    C       -4.02837        13.32379         7.78808
| 79>    C       -3.98554        12.18180         7.00489
| 80>    O       -3.25752         9.73120         5.37858
| 81>    C        0.88995        11.74215         6.88678
| 82>    C        1.33923        12.88145         7.58760
| 83>    C        1.98659        11.04217         6.33949
| 84>    N        2.93396        10.55251         5.91289
| 85>    N        1.76993        13.78634         8.14715
| 86>    F       -5.20961        13.88136         8.08389
| 87>    F       -2.92433        14.99568         9.03351
| 88>    C       -1.49140         6.63542         0.52650
| 89>    C       -4.68752         6.23707         3.75333
| 90>    H       -1.40676        -1.24787        -0.58246
| 91>    H       -1.92729         0.91145         0.32468
| 92>    H       -0.89128        -3.22216        -1.41598
| 93>    H        1.60216        -8.63467        -3.09838
| 94>    H       -2.39267         2.89009         1.19363
| 95>    H       -2.48765         8.39760         4.01713
| 96>    H        5.06406        -9.33233        -1.35064
| 97>    H        6.39895       -13.99548        -3.86330
| 98>    H        2.26573       -12.35283        -6.11227
| 99>    H        1.42511        -5.12685        -4.02493
|100>    H        0.31240        -6.45521        -4.35178
|101>    H       -1.71597        -5.90944        -2.02285
|102>    H       -1.03185        -7.45260        -2.55080
|103>    H       -0.48181        -3.57281        -3.71376
|104>    H       -0.53218        -4.35016        -5.29152
|105>    H       -1.62299        -4.88987        -4.02181
|106>    H       -0.72480        -6.24750         0.24443
|107>    H       -1.81885        -7.55852        -0.19814
|108>    H       -0.07500        -7.80313        -0.27675
|109>    H       -4.20602         4.40885         2.73272
|110>    H       -3.40577         4.60510         4.29201
|111>    H       -3.38701         5.64093         0.73948
|112>    H       -3.29124         7.21813         1.53425
|113>    H        0.81157         9.18140         5.99474
|114>    H       -0.72982        13.83434         8.39407
|115>    H       -4.89144        11.73405         6.62853
|116>    H       -0.93633         5.73475         0.27398
|117>    H       -1.76554         7.13909        -0.39722
|118>    H       -0.83732         7.29384         1.09351
|119>    H       -5.05554         6.75230         2.87066
|120>    H       -5.54092         5.80074         4.26745
|121>    H       -4.22893         6.96312         4.41767
|122> *
|123>
|124>                          ****END OF INPUT****

CARTESIAN COORDINATES (ANGSTROEM)
---------------------------------
  S      3.223110   -0.153910    2.644880
  N      2.567350   -1.248400    1.666670
  C      1.386190   -0.805010    1.243790
  C      1.076020    0.486410    1.783910
  N      2.042800    0.935740    2.580160
  C      0.493540   -1.471030    0.364770
  C     -0.687230   -0.791350    0.078550
  C     -0.989010    0.459230    0.604090
  C     -0.137520    1.147880    1.463540
  C     -0.429010    2.437130    2.005800
  C      0.826540   -2.749830   -0.178440
  C      0.077950   -3.519800   -1.061290
  C      0.714610   -4.700750   -1.406660
  C      1.949630   -4.845340   -0.762410
  S      2.339060   -3.511380    0.246660
  C      0.420270   -5.892680   -2.285260
  C      1.636480   -6.744670   -2.003900
  C      2.511810   -6.085910   -1.121880
  C      2.105670   -7.969160   -2.422300
  C      3.348980   -8.284000   -1.867500
  S      3.915820   -6.994120   -0.791980
  C     -1.569600    3.206500    1.807410
  C     -1.515120    4.414350    2.482370
  C     -0.328270    4.571120    3.205550
  S      0.727310    3.224490    3.051860
  C     -2.425890    5.606290    2.662760
  C     -1.567330    6.470900    3.554320
  C     -0.354420    5.821460    3.853640
  C     -1.664140    7.718550    4.129210
  C     -0.543890    8.045560    4.897850
  S      0.665210    6.753370    4.851940
  C      4.192280   -9.393680   -1.991380
  C      4.125410  -10.513120   -2.790100
  C      5.113130  -11.576290   -2.750220
  C      4.838590  -12.483160   -3.865390
  C      3.679970  -12.043290   -4.522650
  C      3.166420  -10.818770   -3.867610
  C      5.502040  -13.612030   -4.320640
  C      4.982440  -14.271830   -5.424640
  C      3.826400  -13.829240   -6.067450
  C      3.158870  -12.701440   -5.618780
  C      6.102860  -11.766030   -1.820310
  O      2.161000  -10.223790   -4.200440
  C      7.017960  -12.840270   -1.851030
  C      6.350120  -10.965860   -0.684100
  N      7.796350  -13.683020   -1.817950
  N      6.620110  -10.390890    0.273370
  F      5.611630  -15.360310   -5.883070
  F      3.359490  -14.498710   -7.129230
  C      0.437280   -5.529390   -3.787250
  C     -0.883800   -6.600600   -1.885100
  C     -0.619870   -4.523470   -4.221490
  C     -0.872000   -7.081340   -0.438650
  C     -3.707780    5.131630    3.383100
  C     -2.743770    6.298570    1.327600
  C     -0.212570    9.184470    5.639750
  C     -0.971250   10.269730    6.017160
  C     -0.431170   11.408350    6.734590
  C     -1.556950   12.212890    7.208700
  C     -2.745330   11.641800    6.728460
  C     -2.434720   10.430090    5.935340
  C     -1.607110   13.355160    7.992030
  C     -2.852900   13.896620    8.273510
  C     -4.028370   13.323790    7.788080
  C     -3.985540   12.181800    7.004890
  O     -3.257520    9.731200    5.378580
  C      0.889950   11.742150    6.886780
  C      1.339230   12.881450    7.587600
  C      1.986590   11.042170    6.339490
  N      2.933960   10.552510    5.912890
  N      1.769930   13.786340    8.147150
  F     -5.209610   13.881360    8.083890
  F     -2.924330   14.995680    9.033510
  C     -1.491400    6.635420    0.526500
  C     -4.687520    6.237070    3.753330
  H     -1.406760   -1.247870   -0.582460
  H     -1.927290    0.911450    0.324680
  H     -0.891280   -3.222160   -1.415980
  H      1.602160   -8.634670   -3.098380
  H     -2.392670    2.890090    1.193630
  H     -2.487650    8.397600    4.017130
  H      5.064060   -9.332330   -1.350640
  H      6.398950  -13.995480   -3.863300
  H      2.265730  -12.352830   -6.112270
  H      1.425110   -5.126850   -4.024930
  H      0.312400   -6.455210   -4.351780
  H     -1.715970   -5.909440   -2.022850
  H     -1.031850   -7.452600   -2.550800
  H     -0.481810   -3.572810   -3.713760
  H     -0.532180   -4.350160   -5.291520
  H     -1.622990   -4.889870   -4.021810
  H     -0.724800   -6.247500    0.244430
  H     -1.818850   -7.558520   -0.198140
  H     -0.075000   -7.803130   -0.276750
  H     -4.206020    4.408850    2.732720
  H     -3.405770    4.605100    4.292010
  H     -3.387010    5.640930    0.739480
  H     -3.291240    7.218130    1.534250
  H      0.811570    9.181400    5.994740
  H     -0.729820   13.834340    8.394070
  H     -4.891440   11.734050    6.628530
  H     -0.936330    5.734750    0.273980
  H     -1.765540    7.139090   -0.397220
  H     -0.837320    7.293840    1.093510
  H     -5.055540    6.752300    2.870660
  H     -5.540920    5.800740    4.267450
  H     -4.228930    6.963120    4.417670

 Total Charge           Charge          ....    0
 Multiplicity           Mult            ....    1
 Number of Electrons    NEL             ....  554
 Basis Dimension        Dim             .... 1230

ORBITAL ENERGIES
----------------

  NO   OCC          E(Eh)            E(eV)
   0   2.0000     -89.066398     -2423.6199
   1   2.0000     -89.002309     -2421.8759
   2   2.0000     -89.001643     -2421.8578
   3   2.0000     -88.998030     -2421.7595
   4   2.0000     -88.997808     -2421.7535
   5   2.0000     -24.832244      -675.7197
   6   2.0000     -24.832185      -675.7181
   7   2.0000     -24.830456      -675.6710
   8   2.0000     -24.830208      -675.6643
   9   2.0000     -19.257066      -524.0114
  10   2.0000     -19.256920      -524.0074
  11   2.0000     -14.494862      -394.4252
  12   2.0000     -14.494740      -394.4219
  13   2.0000     -14.450145      -393.2084
  14   2.0000     -14.449170      -393.1819
  15   2.0000     -14.447170      -393.1275
  16   2.0000     -14.446946      -393.1214
  17   2.0000     -10.417703      -283.4801
  18   2.0000     -10.417684      -283.4796
  19   2.0000     -10.417159      -283.4653
  20   2.0000     -10.417029      -283.4618
  21   2.0000     -10.407112      -283.1919
  22   2.0000     -10.406962      -283.1878
  23   2.0000     -10.379101      -282.4297
  24   2.0000     -10.378522      -282.4139
  25   2.0000     -10.374717      -282.3104
  26   2.0000     -10.374662      -282.3089
  27   2.0000     -10.374008      -282.2911
  28   2.0000     -10.373707      -282.2829
  29   2.0000     -10.364562      -282.0341
  30   2.0000     -10.363462      -282.0041
  31   2.0000     -10.360352      -281.9195
  32   2.0000     -10.360017      -281.9104
  33   2.0000     -10.359670      -281.9009
  34   2.0000     -10.359359      -281.8925
  35   2.0000     -10.352361      -281.7021
  36   2.0000     -10.352083      -281.6945
  37   2.0000     -10.351725      -281.6848
  38   2.0000     -10.351411      -281.6762
  39   2.0000     -10.351352      -281.6746
  40   2.0000     -10.350452      -281.6501
  41   2.0000     -10.348637      -281.6007
  42   2.0000     -10.348603      -281.5998
  43   2.0000     -10.348556      -281.5985
  44   2.0000     -10.348511      -281.5973
  45   2.0000     -10.345734      -281.5217
  46   2.0000     -10.344775      -281.4956
  47   2.0000     -10.340743      -281.3859
  48   2.0000     -10.340558      -281.3809
  49   2.0000     -10.340353      -281.3753
  50   2.0000     -10.340170      -281.3703
  51   2.0000     -10.339945      -281.3642
  52   2.0000     -10.339933      -281.3639
  53   2.0000     -10.336554      -281.2719
  54   2.0000     -10.336211      -281.2626
  55   2.0000     -10.334136      -281.2061
  56   2.0000     -10.333856      -281.1985
  57   2.0000     -10.330410      -281.1047
  58   2.0000     -10.329878      -281.0903
  59   2.0000     -10.327794      -281.0336
  60   2.0000     -10.327427      -281.0236
  61   2.0000     -10.326835      -281.0075
  62   2.0000     -10.325878      -280.9814
  63   2.0000     -10.325844      -280.9805
  64   2.0000     -10.324870      -280.9540
  65   2.0000     -10.321797      -280.8704
  66   2.0000     -10.320809      -280.8435
  67   2.0000     -10.311157      -280.5808
  68   2.0000     -10.310859      -280.5727
  69   2.0000     -10.310768      -280.5702
  70   2.0000     -10.310306      -280.5577
  71   2.0000     -10.297337      -280.2048
  72   2.0000     -10.290717      -280.0246
  73   2.0000     -10.290712      -280.0245
  74   2.0000     -10.290686      -280.0238
  75   2.0000      -8.176486      -222.4935
  76   2.0000      -8.115779      -220.8416
  77   2.0000      -8.115165      -220.8249
  78   2.0000      -8.110329      -220.6933
  79   2.0000      -8.109969      -220.6835
  80   2.0000      -6.137962      -167.0224
  81   2.0000      -6.130093      -166.8083
  82   2.0000      -6.129002      -166.7786
  83   2.0000      -6.075132      -165.3127
  84   2.0000      -6.074520      -165.2961
  85   2.0000      -6.071130      -165.2038
  86   2.0000      -6.070517      -165.1872
  87   2.0000      -6.069972      -165.1723
  88   2.0000      -6.069646      -165.1635
  89   2.0000      -6.068267      -165.1259
  90   2.0000      -6.067598      -165.1077
  91   2.0000      -6.065479      -165.0501
  92   2.0000      -6.065132      -165.0406
  93   2.0000      -6.062700      -164.9745
  94   2.0000      -6.062340      -164.9647
  95   2.0000      -1.361608       -37.0512
  96   2.0000      -1.361502       -37.0484
  97   2.0000      -1.346546       -36.6414
  98   2.0000      -1.346422       -36.6380
  99   2.0000      -1.181899       -32.1611
 100   2.0000      -1.174241       -31.9527
 101   2.0000      -1.174137       -31.9499
 102   2.0000      -1.065929       -29.0054
 103   2.0000      -1.065576       -28.9958
 104   2.0000      -1.058430       -28.8014
 105   2.0000      -1.058272       -28.7971
 106   2.0000      -1.043311       -28.3899
 107   2.0000      -1.039859       -28.2960
 108   2.0000      -1.039517       -28.2867
 109   2.0000      -1.035325       -28.1726
 110   2.0000      -1.029711       -28.0199
 111   2.0000      -1.029461       -28.0131
 112   2.0000      -1.022521       -27.8242
 113   2.0000      -1.012436       -27.5498
 114   2.0000      -0.995483       -27.0885
 115   2.0000      -0.994579       -27.0639
 116   2.0000      -0.980005       -26.6673
 117   2.0000      -0.975030       -26.5319
 118   2.0000      -0.943645       -25.6779
 119   2.0000      -0.942567       -25.6486
 120   2.0000      -0.938368       -25.5343
 121   2.0000      -0.933344       -25.3976
 122   2.0000      -0.926131       -25.2013
 123   2.0000      -0.917915       -24.9777
 124   2.0000      -0.911431       -24.8013
 125   2.0000      -0.911060       -24.7912
 126   2.0000      -0.905266       -24.6335
 127   2.0000      -0.891929       -24.2706
 128   2.0000      -0.886231       -24.1156
 129   2.0000      -0.883829       -24.0502
 130   2.0000      -0.883340       -24.0369
 131   2.0000      -0.882845       -24.0234
 132   2.0000      -0.880641       -23.9635
 133   2.0000      -0.879239       -23.9253
 134   2.0000      -0.856225       -23.2991
 135   2.0000      -0.847236       -23.0545
 136   2.0000      -0.829795       -22.5799
 137   2.0000      -0.810246       -22.0479
 138   2.0000      -0.809813       -22.0361
 139   2.0000      -0.808094       -21.9893
 140   2.0000      -0.806309       -21.9408
 141   2.0000      -0.797909       -21.7122
 142   2.0000      -0.792676       -21.5698
 143   2.0000      -0.776060       -21.1177
 144   2.0000      -0.765903       -20.8413
 145   2.0000      -0.762189       -20.7402
 146   2.0000      -0.745277       -20.2800
 147   2.0000      -0.743665       -20.2361
 148   2.0000      -0.743443       -20.2301
 149   2.0000      -0.739766       -20.1301
 150   2.0000      -0.738955       -20.1080
 151   2.0000      -0.731822       -19.9139
 152   2.0000      -0.728204       -19.8154
 153   2.0000      -0.724281       -19.7087
 154   2.0000      -0.720461       -19.6047
 155   2.0000      -0.706164       -19.2157
 156   2.0000      -0.700176       -19.0528
 157   2.0000      -0.696430       -18.9508
 158   2.0000      -0.686826       -18.6895
 159   2.0000      -0.679210       -18.4823
 160   2.0000      -0.678312       -18.4578
 161   2.0000      -0.676482       -18.4080
 162   2.0000      -0.675317       -18.3763
 163   2.0000      -0.674388       -18.3510
 164   2.0000      -0.670650       -18.2493
 165   2.0000      -0.666771       -18.1438
 166   2.0000      -0.662163       -18.0184
 167   2.0000      -0.649451       -17.6725
 168   2.0000      -0.644865       -17.5477
 169   2.0000      -0.642260       -17.4768
 170   2.0000      -0.641160       -17.4469
 171   2.0000      -0.629145       -17.1199
 172   2.0000      -0.628661       -17.1067
 173   2.0000      -0.622129       -16.9290
 174   2.0000      -0.622026       -16.9262
 175   2.0000      -0.620693       -16.8899
 176   2.0000      -0.617079       -16.7916
 177   2.0000      -0.613053       -16.6820
 178   2.0000      -0.608111       -16.5475
 179   2.0000      -0.605506       -16.4766
 180   2.0000      -0.601733       -16.3740
 181   2.0000      -0.597729       -16.2650
 182   2.0000      -0.589474       -16.0404
 183   2.0000      -0.587943       -15.9988
 184   2.0000      -0.585406       -15.9297
 185   2.0000      -0.584463       -15.9040
 186   2.0000      -0.583009       -15.8645
 187   2.0000      -0.581127       -15.8133
 188   2.0000      -0.581045       -15.8110
 189   2.0000      -0.576554       -15.6888
 190   2.0000      -0.574871       -15.6430
 191   2.0000      -0.573582       -15.6080
 192   2.0000      -0.573122       -15.5954
 193   2.0000      -0.570400       -15.5214
 194   2.0000      -0.568608       -15.4726
 195   2.0000      -0.566312       -15.4101
 196   2.0000      -0.562342       -15.3021
 197   2.0000      -0.559835       -15.2339
 198   2.0000      -0.559234       -15.2175
 199   2.0000      -0.554517       -15.0892
 200   2.0000      -0.548645       -14.9294
 201   2.0000      -0.547222       -14.8907
 202   2.0000      -0.545115       -14.8333
 203   2.0000      -0.540575       -14.7098
 204   2.0000      -0.537682       -14.6311
 205   2.0000      -0.532579       -14.4922
 206   2.0000      -0.531694       -14.4681
 207   2.0000      -0.529277       -14.4024
 208   2.0000      -0.528396       -14.3784
 209   2.0000      -0.528210       -14.3733
 210   2.0000      -0.526431       -14.3249
 211   2.0000      -0.522699       -14.2234
 212   2.0000      -0.520756       -14.1705
 213   2.0000      -0.520024       -14.1506
 214   2.0000      -0.519409       -14.1338
 215   2.0000      -0.517385       -14.0788
 216   2.0000      -0.515174       -14.0186
 217   2.0000      -0.513542       -13.9742
 218   2.0000      -0.510743       -13.8980
 219   2.0000      -0.507399       -13.8070
 220   2.0000      -0.504108       -13.7175
 221   2.0000      -0.495303       -13.4779
 222   2.0000      -0.493549       -13.4302
 223   2.0000      -0.491044       -13.3620
 224   2.0000      -0.489753       -13.3269
 225   2.0000      -0.489351       -13.3159
 226   2.0000      -0.487737       -13.2720
 227   2.0000      -0.487476       -13.2649
 228   2.0000      -0.487034       -13.2529
 229   2.0000      -0.486250       -13.2315
 230   2.0000      -0.482238       -13.1224
 231   2.0000      -0.481794       -13.1103
 232   2.0000      -0.480524       -13.0757
 233   2.0000      -0.479141       -13.0381
 234   2.0000      -0.477880       -13.0038
 235   2.0000      -0.477130       -12.9834
 236   2.0000      -0.476152       -12.9568
 237   2.0000      -0.475453       -12.9377
 238   2.0000      -0.472655       -12.8616
 239   2.0000      -0.471065       -12.8183
 240   2.0000      -0.469514       -12.7761
 241   2.0000      -0.460530       -12.5316
 242   2.0000      -0.460321       -12.5260
 243   2.0000      -0.458710       -12.4821
 244   2.0000      -0.458530       -12.4772
 245   2.0000      -0.456185       -12.4134
 246   2.0000      -0.454955       -12.3800
 247   2.0000      -0.451919       -12.2973
 248   2.0000      -0.450022       -12.2457
 249   2.0000      -0.444314       -12.0904
 250   2.0000      -0.443635       -12.0719
 251   2.0000      -0.440807       -11.9950
 252   2.0000      -0.440342       -11.9823
 253   2.0000      -0.439167       -11.9504
 254   2.0000      -0.436149       -11.8682
 255   2.0000      -0.432907       -11.7800
 256   2.0000      -0.430436       -11.7128
 257   2.0000      -0.426279       -11.5996
 258   2.0000      -0.421728       -11.4758
 259   2.0000      -0.415740       -11.3129
 260   2.0000      -0.400777       -10.9057
 261   2.0000      -0.393014       -10.6945
 262   2.0000      -0.385560       -10.4916
 263   2.0000      -0.383138       -10.4257
 264   2.0000      -0.380135       -10.3440
 265   2.0000      -0.377645       -10.2762
 266   2.0000      -0.375736       -10.2243
 267   2.0000      -0.370718       -10.0878
 268   2.0000      -0.368960       -10.0399
 269   2.0000      -0.365088        -9.9345
 270   2.0000      -0.361987        -9.8502
 271   2.0000      -0.360747        -9.8164
 272   2.0000      -0.348044        -9.4708
 273   2.0000      -0.342915        -9.3312
 274   2.0000      -0.329634        -8.9698
 275   2.0000      -0.293261        -7.9800
 276   2.0000      -0.267496        -7.2789
 277   0.0000      -0.088750        -2.4150
 278   0.0000      -0.067892        -1.8474
 279   0.0000      -0.053760        -1.4629
 280   0.0000      -0.039143        -1.0651
 281   0.0000      -0.036628        -0.9967

MULLIKEN ATOMIC CHARGES
-----------------------
   0 S :    0.557656
   1 N :   -0.346679
   2 C :    0.019239
   3 C :    0.017261
   4 N :   -0.344591
   5 C :    0.106355
   6 C :   -0.051239
   7 C :   -0.046752
   8 C :    0.100347
   9 C :   -0.097435
  10 C :   -0.098172
  11 C :   -0.057056
  12 C :    0.016598
  13 C :   -0.073400
  14 S :    0.206181
  15 C :   -0.185896
  16 C :   -0.024290
  17 C :   -0.051454
  18 C :    0.009190
  19 C :   -0.159391
  20 S :    0.180990
  21 C :   -0.051441
  22 C :    0.017400
  23 C :   -0.070881
  24 S :    0.204715
  25 C :   -0.188932
  26 C :   -0.026286
  27 C :   -0.057406
  28 C :    0.018467
  29 C :   -0.161200
  30 S :    0.184339
  31 C :    0.067436
  32 C :   -0.143723
  33 C :    0.273616
  34 C :    0.028418
  35 C :   -0.057847
  36 C :    0.225298
  37 C :   -0.082962
  38 C :    0.242432
  39 C :    0.240185
  40 C :   -0.093447
  41 C :   -0.380545
  42 O :   -0.191293
  43 C :   -0.133073
  44 C :   -0.135439
  45 N :    0.108728
  46 N :    0.107436
  47 F :   -0.180865
  48 F :   -0.185176
  49 C :    0.033495
  50 C :    0.015972
  51 C :   -0.017448
  52 C :   -0.022024
  53 C :    0.036064
  54 C :    0.016362
  55 C :    0.066836
  56 C :   -0.149365
  57 C :    0.271519
  58 C :    0.027127
  59 C :   -0.060032
  60 C :    0.223173
  61 C :   -0.084446
  62 C :    0.243564
  63 C :    0.241989
  64 C :   -0.095013
  65 O :   -0.190585
  66 C :   -0.374955
  67 C :   -0.133276
  68 C :   -0.143032
  69 N :    0.113396
  70 N :    0.105774
  71 F :   -0.185312
  72 F :   -0.180778
  73 C :   -0.020145
  74 C :   -0.021373
  75 H :    0.007012
  76 H :    0.006151
  77 H :    0.005391
  78 H :    0.037535
  79 H :    0.002145
  80 H :    0.041273
  81 H :    0.028217
  82 H :    0.044796
  83 H :    0.038984
  84 H :    0.033235
  85 H :    0.034651
  86 H :    0.029436
  87 H :    0.034300
  88 H :    0.028683
  89 H :    0.043072
  90 H :    0.026984
  91 H :    0.039154
  92 H :    0.036988
  93 H :    0.043604
  94 H :    0.020264
  95 H :    0.031393
  96 H :    0.023617
  97 H :    0.039356
  98 H :    0.035390
  99 H :    0.044874
 100 H :    0.038833
 101 H :    0.038411
 102 H :    0.037298
 103 H :    0.041943
 104 H :    0.028551
 105 H :    0.038817
 106 H :    0.046744
Sum of atomic charges:   -0.0000000

LOEWDIN ATOMIC CHARGES
----------------------
   0 S :    0.658745
   1 N :   -0.295840
   2 C :   -0.046857
   3 C :   -0.046722
   4 N :   -0.295283
   5 C :   -0.045081
   6 C :   -0.008172
   7 C :   -0.007093
   8 C :   -0.045721
   9 C :   -0.153867
  10 C :   -0.155687
  11 C :   -0.054772
  12 C :   -0.022687
  13 C :   -0.210095
  14 S :    0.486378
  15 C :   -0.038746
  16 C :   -0.046412
  17 C :   -0.159329
  18 C :    0.002606
  19 C :   -0.187595
  20 S :    0.458531
  21 C :   -0.053234
  22 C :   -0.019775
  23 C :   -0.212745
  24 S :    0.484702
  25 C :   -0.038859
  26 C :   -0.048717
  27 C :   -0.156448
  28 C :    0.002585
  29 C :   -0.189529
  30 S :    0.458710
  31 C :    0.056137
  32 C :   -0.125365
  33 C :    0.080434
  34 C :   -0.019629
  35 C :   -0.049511
  36 C :    0.096250
  37 C :   -0.017874
  38 C :    0.076602
  39 C :    0.073604
  40 C :   -0.008362
  41 C :   -0.151385
  42 O :   -0.153285
  43 C :   -0.014526
  44 C :   -0.019816
  45 N :   -0.055972
  46 N :   -0.054225
  47 F :   -0.048454
  48 F :   -0.050986
  49 C :   -0.011274
  50 C :   -0.016620
  51 C :   -0.061429
  52 C :   -0.058303
  53 C :   -0.012353
  54 C :   -0.016249
  55 C :    0.057098
  56 C :   -0.125981
  57 C :    0.079768
  58 C :   -0.019495
  59 C :   -0.049869
  60 C :    0.095581
  61 C :   -0.017959
  62 C :    0.076606
  63 C :    0.073492
  64 C :   -0.008218
  65 O :   -0.154834
  66 C :   -0.151102
  67 C :   -0.014818
  68 C :   -0.020848
  69 N :   -0.054217
  70 N :   -0.055811
  71 F :   -0.051067
  72 F :   -0.048315
  73 C :   -0.058152
  74 C :   -0.060284
  75 H :    0.035734
  76 H :    0.035602
  77 H :    0.029906
  78 H :    0.037299
  79 H :    0.031018
  80 H :    0.036790
  81 H :    0.044636
  82 H :    0.053715
  83 H :    0.054164
  84 H :    0.030588
  85 H :    0.027934
  86 H :    0.022653
  87 H :    0.028165
  88 H :    0.023383
  89 H :    0.033374
  90 H :    0.022837
  91 H :    0.026930
  92 H :    0.029090
  93 H :    0.028022
  94 H :    0.021796
  95 H :    0.029840
  96 H :    0.023595
  97 H :    0.027041
  98 H :    0.045534
  99 H :    0.053781
 100 H :    0.054196
 101 H :    0.026077
 102 H :    0.029140
 103 H :    0.028365
 104 H :    0.023812
 105 H :    0.032044
 106 H :    0.030962

  Mayer bond orders larger than 0.100000
B(  0-S ,  1-N ) :   1.2710 B(  0-S ,  4-N ) :   1.2720 B(  1-N ,  2-C ) :   1.4933
B(  1-N ,  4-N ) :   0.1480 B(  2-C ,  3-C ) :   1.1689 B(  2-C ,  5-C ) :   1.1752
B(  3-C ,  4-N ) :   1.4945 B(  3-C ,  8-C ) :   1.1755 B(  5-C ,  6-C ) :   1.4616
B(  5-C , 10-C ) :   1.1132 B(  6-C ,  7-C ) :   1.2651 B(  6-C , 75-H ) :   0.9914
B(  7-C ,  8-C ) :   1.4635 B(  7-C , 76-H ) :   0.9916 B(  8-C ,  9-C ) :   1.1127
B(  9-C , 21-C ) :   1.4500 B(  9-C , 24-S ) :   1.1451 B( 10-C , 11-C ) :   1.4521
B( 10-C , 14-S ) :   1.1445 B( 11-C , 12-C ) :   1.3570 B( 11-C , 77-H ) :   0.9910
B( 12-C , 13-C ) :   1.5006 B( 12-C , 15-C ) :   0.9246 B( 13-C , 14-S ) :   1.0606
B( 13-C , 17-C ) :   1.2261 B( 15-C , 16-C ) :   0.9301 B( 15-C , 49-C ) :   1.0158
B( 15-C , 50-C ) :   1.0266 B( 16-C , 17-C ) :   1.4395 B( 16-C , 18-C ) :   1.3878
B( 17-C , 20-S ) :   1.1460 B( 18-C , 19-C ) :   1.3578 B( 18-C , 78-H ) :   0.9814
B( 19-C , 20-S ) :   1.0733 B( 19-C , 31-C ) :   1.2857 B( 21-C , 22-C ) :   1.3600
B( 21-C , 79-H ) :   0.9950 B( 22-C , 23-C ) :   1.4945 B( 22-C , 25-C ) :   0.9376
B( 23-C , 24-S ) :   1.0572 B( 23-C , 27-C ) :   1.2282 B( 25-C , 26-C ) :   0.9155
B( 25-C , 53-C ) :   1.0172 B( 25-C , 54-C ) :   1.0269 B( 26-C , 27-C ) :   1.4427
B( 26-C , 28-C ) :   1.3986 B( 27-C , 30-S ) :   1.1496 B( 28-C , 29-C ) :   1.3610
B( 28-C , 80-H ) :   0.9782 B( 29-C , 30-S ) :   1.0726 B( 29-C , 55-C ) :   1.2797
B( 31-C , 32-C ) :   1.5619 B( 31-C , 81-H ) :   0.9125 B( 32-C , 33-C ) :   1.1109
B( 32-C , 36-C ) :   0.9642 B( 33-C , 34-C ) :   1.0106 B( 33-C , 41-C ) :   1.6287
B( 34-C , 35-C ) :   1.3486 B( 34-C , 37-C ) :   1.3339 B( 35-C , 36-C ) :   0.9644
B( 35-C , 40-C ) :   1.3453 B( 36-C , 42-O ) :   2.1400 B( 37-C , 38-C ) :   1.3515
B( 37-C , 82-H ) :   0.9880 B( 38-C , 39-C ) :   1.2932 B( 38-C , 47-F ) :   1.1140
B( 39-C , 40-C ) :   1.3295 B( 39-C , 48-F ) :   1.0997 B( 40-C , 83-H ) :   1.0143
B( 41-C , 43-C ) :   1.1317 B( 41-C , 44-C ) :   1.1306 B( 43-C , 45-N ) :   2.9751
B( 44-C , 46-N ) :   2.9693 B( 49-C , 51-C ) :   1.0997 B( 49-C , 84-H ) :   0.9479
B( 49-C , 85-H ) :   0.9450 B( 50-C , 52-C ) :   1.0875 B( 50-C , 86-H ) :   0.9478
B( 50-C , 87-H ) :   0.9493 B( 51-C , 88-H ) :   0.9658 B( 51-C , 89-H ) :   0.9669
B( 51-C , 90-H ) :   0.9677 B( 52-C , 91-H ) :   0.9693 B( 52-C , 92-H ) :   0.9708
B( 52-C , 93-H ) :   0.9672 B( 53-C , 74-C ) :   1.0962 B( 53-C , 94-H ) :   0.9444
B( 53-C , 95-H ) :   0.9476 B( 54-C , 73-C ) :   1.0878 B( 54-C , 96-H ) :   0.9492
B( 54-C , 97-H ) :   0.9470 B( 55-C , 56-C ) :   1.5556 B( 55-C , 98-H ) :   0.9206
B( 56-C , 57-C ) :   1.1075 B( 56-C , 60-C ) :   0.9693 B( 57-C , 58-C ) :   1.0125
B( 57-C , 66-C ) :   1.6343 B( 58-C , 59-C ) :   1.3474 B( 58-C , 61-C ) :   1.3341
B( 59-C , 60-C ) :   0.9617 B( 59-C , 64-C ) :   1.3437 B( 60-C , 65-O ) :   2.1480
B( 61-C , 62-C ) :   1.3495 B( 61-C , 99-H ) :   0.9895 B( 62-C , 63-C ) :   1.2938
B( 62-C , 72-F ) :   1.1131 B( 63-C , 64-C ) :   1.3286 B( 63-C , 71-F ) :   1.0992
B( 64-C ,100-H ) :   1.0156 B( 66-C , 67-C ) :   1.1308 B( 66-C , 68-C ) :   1.1292
B( 67-C , 70-N ) :   2.9751 B( 68-C , 69-N ) :   2.9843 B( 73-C ,101-H ) :   0.9662
B( 73-C ,102-H ) :   0.9702 B( 73-C ,103-H ) :   0.9700 B( 74-C ,104-H ) :   0.9672
B( 74-C ,105-H ) :   0.9666 B( 74-C ,106-H ) :   0.9664

-----------------------------------------------------------------------------
         ABSORPTION SPECTRUM VIA TRANSITION ELECTRIC DIPOLE MOMENTS
-----------------------------------------------------------------------------
State   Energy  Wavelength   fosc         T2         TX        TY        TZ
        (cm-1)    (nm)                  (au**2)     (au)      (au)      (au)
-----------------------------------------------------------------------------
   0   16067.6    622.4   3.552820535  72.79421   1.84303  -7.71142  -3.15142
   1   23753.2    421.0   0.289214044   4.00842   1.79062   0.08722   0.89135
   2   27620.5    362.0   0.387450680   4.61807   0.36731  -2.04324  -0.55525
   3   28877.6    346.3   0.035486158   0.40455  -0.57594   0.02709  -0.26853
   4   29655.0    337.2   0.187720080   2.08396  -0.33662   1.26961   0.59894
   5   30196.8    331.2   0.007718322   0.08415  -0.21389   0.19442  -0.02447
   6   33088.0    302.2   0.087677668   0.87236   0.36100  -0.43425  -0.74395
   7   35492.1    281.8   0.486245690   4.51023  -1.90547  -0.10126  -0.93229
   8   36729.1    272.3   0.203170604   1.82107   0.50120  -0.66506  -1.06187
   9   37413.1    267.3   0.213401345   1.87780  -0.51732   0.93738   0.85528
  10   37895.6    263.9   0.078371157   0.68084   0.08311   0.80289   0.17116
  11   38173.0    262.0   0.032397277   0.27940  -0.47450   0.22684  -0.05287
  12   38359.7    260.7   0.050637326   0.43458   0.40789   0.38361   0.34792
  13   38611.8    259.0   0.003750847   0.03198   0.12987  -0.00752   0.12271
  14   39454.3    253.5   0.052343773   0.43676   0.31593  -0.28909  -0.50336
  15   39644.9    252.2   0.345648646   2.87027  -0.74777   0.72419   1.33666

Dispersion correction           -0.066675033
FINAL SINGLE POINT ENERGY     -5094.817950539034

DIPOLE MOMENT
-------------
                                X             Y             Z
Electronic contribution:     57.61557      -4.36732      31.08000
Nuclear contribution   :    -61.98761       4.22847     -33.28324
                        -----------------------------------------
Total Dipole Moment    :     -4.37204      -0.13886      -2.20325
                        -----------------------------------------
Magnitude (a.u.)       :      4.89779
Magnitude (Debye)      :     12.44919

Rotational constants in cm-1:     0.003192     0.000149     0.000144
Rotational constants in MHz :    95.702007     4.461976     4.318488

                             ****ORCA TERMINATED NORMALLY****
TOTAL RUN TIME: 0 days 0 hours 11 minutes 34 seconds 54 msec
