                         Program Version 4.2.0 -  RELEASE  -
|  1> # ORCA input file
|  2> # SCF done       -176.651954909134          0.000682014505
|  3> ! wb97x-d3 def2-SVP def2/J RIJCOSX Grid4 TightSCF
|  4> %maxcore 5000
|  5> %tddft
|  6>     Mode sTDA
|  7>     Ethresh 5.0
|  8>     maxcore 5000
|  9> end
| 10>
| 11> %pal
| 12>   nprocs 6
| 13>   end
| 14> * xyz 0 1
| 15>    C        2.89054         1.05966        -0.06595
| 16>    C        2.85599        -0.34711        -0.21732
| 17>    C        1.65639        -1.01791        -0.25881
| 18>    C        0.49439        -0.25810        -0.14751
| 19>    C        0.52882         1.15026        -0.01182
| 20>    C        1.72833         1.82101         0.03042
| 21>    C       -0.88225        -0.64017        -0.12769
| 22>    C       -1.70220         0.47013         0.00796
| 23>    C       -0.87303         1.72157         0.08262
| 24>    C        4.26816         1.43641        -0.02738
| 25>    C        5.08867         0.32574        -0.15553
| 26>    C        4.25847        -0.91870        -0.30278
| 27>    S       -1.76829        -2.10442        -0.20271
| 28>    C       -3.27539        -1.21308        -0.04538
| 29>    C       -3.05390         0.15020         0.05182
| 30>    S        5.15564         2.88888         0.16645
| 31>    C        6.66452         1.99100         0.07932
| 32>    C        6.44214         0.63605        -0.09896
| 33>    C       -1.09255         2.46584         1.41251
| 34>    C       -1.17362         2.66824        -1.09470
| 35>    C       -0.99348         2.00324        -2.45389
| 36>    C       -0.82263         1.59441         2.63311
| 37>    C        4.50288        -1.60328        -1.66088
| 38>    C        4.53442        -1.91791         0.83564
| 39>    C        4.26688        -0.67532        -2.84629
| 40>    C        4.32084        -1.31614         2.21924
| 41>    C        7.91427         2.66795         0.21263
| 42>    C       -4.52210        -1.90761        -0.01244
| 43>    C        7.99567         4.04016         0.43240
| 44>    C        9.19519         4.72093         0.59368
| 45>    C       10.43096         4.08454         0.54554
| 46>    C       10.39666         2.68268         0.30650
| 47>    C        9.15547         1.97419         0.14311
| 48>    C       -4.59969        -3.29544        -0.08631
| 49>    C       -5.79466        -4.00031        -0.03188
| 50>    C       -7.02990        -3.37460         0.09871
| 51>    C       -7.00011        -1.95378         0.16200
| 52>    C       -5.76314        -1.22099         0.11015
| 53>    N       11.44879         1.87400         0.21211
| 54>    S       10.93651         0.37641        -0.05612
| 55>    N        9.35486         0.67359        -0.06480
| 56>    N       -8.05251        -1.14812         0.27706
| 57>    S       -7.54541         0.37459         0.31530
| 58>    N       -5.96593         0.09319         0.18959
| 59>    C       11.70255         4.70748         0.71951
| 60>    C       -8.29544        -4.02860         0.17860
| 61>    C       12.01630         5.99303         1.00096
| 62>    S       10.96098         7.36879         1.25084
| 63>    C       12.34849         8.46073         1.55900
| 64>    N       13.50557         7.74914         1.44817
| 65>    C       13.41952         6.39870         1.15065
| 66>    O       12.23885         9.62538         1.80980
| 67>    C       14.79063         8.38684         1.68504
| 68>    C       15.10724         8.44835         3.17334
| 69>    O       14.38483         5.68181         1.03115
| 70>    C       -8.59808        -5.34721         0.19054
| 71>    S       -7.53030        -6.73434         0.10936
| 72>    C       -8.90174        -7.88053         0.22803
| 73>    N      -10.06385        -7.17396         0.31788
| 74>    C       -9.99358        -5.79023         0.29936
| 75>    O       -8.77950        -9.07065         0.23261
| 76>    C      -11.34157        -7.86341         0.39455
| 77>    C      -11.81287        -8.30364        -0.98502
| 78>    O      -10.96442        -5.07465         0.37547
| 79>    H        1.60084        -2.09063        -0.36639
| 80>    H        1.78401         2.89352         0.13975
| 81>    H       -3.86323         0.84884         0.15373
| 82>    H        7.25225        -0.06504        -0.17420
| 83>    H       -0.43459         3.33674         1.43622
| 84>    H       -2.12413         2.82237         1.44258
| 85>    H       -2.20163         3.02336        -0.99840
| 86>    H       -0.51025         3.53243        -1.02317
| 87>    H       -1.67272         1.16103        -2.56423
| 88>    H       -1.20085         2.71639        -3.24808
| 89>    H        0.02545         1.64136        -2.57372
| 90>    H        0.20188         1.22849         2.62603
| 91>    H       -0.97624         2.16941         3.54308
| 92>    H       -1.49338         0.73848         2.65167
| 93>    H        5.53236        -1.96634        -1.68421
| 94>    H        3.83906        -2.46663        -1.73865
| 95>    H        3.87635        -2.77985         0.70946
| 96>    H        5.56557        -2.26589         0.74700
| 97>    H        4.94303         0.17579        -2.81037
| 98>    H        4.43849        -1.20956        -3.77767
| 99>    H        3.24473        -0.30285        -2.84653
|100>    H        4.99311        -0.47692         2.38256
|101>    H        3.29763        -0.96426         2.33231
|102>    H        4.51423        -2.06357         2.98488
|103>    H        7.07498         4.60305         0.48655
|104>    H        9.15934         5.78508         0.76406
|105>    H       -3.67950        -3.85293        -0.18537
|106>    H       -5.75501        -5.07596        -0.09324
|107>    H       12.55416         4.04261         0.62072
|108>    H       -9.14980        -3.36401         0.25214
|109>    H       15.53529         7.78616         1.15761
|110>    H       14.74787         9.39252         1.26059
|111>    H       15.14325         7.44516         3.59290
|112>    H       16.07240         8.92419         3.32121
|113>    H       14.34845         9.02660         3.69613
|114>    H      -11.21611        -8.72908         1.04926
|115>    H      -12.04708        -7.15601         0.83652
|116>    H      -11.09640        -8.99402        -1.42429
|117>    H      -12.77292        -8.80437        -0.89948
|118>    H      -11.92443        -7.44138        -1.63867
|119> *
|120>
|121>                          ****END OF INPUT****

CARTESIAN COORDINATES (ANGSTROEM)
---------------------------------
  C      2.890540    1.059660   -0.065950
  C      2.855990   -0.347110   -0.217320
  C      1.656390   -1.017910   -0.258810
  C      0.494390   -0.258100   -0.147510
  C      0.528820    1.150260   -0.011820
  C      1.728330    1.821010    0.030420
  C     -0.882250   -0.640170   -0.127690
  C     -1.702200    0.470130    0.007960
  C     -0.873030    1.721570    0.082620
  C      4.268160    1.436410   -0.027380
  C      5.088670    0.325740   -0.155530
  C      4.258470   -0.918700   -0.302780
  S     -1.768290   -2.104420   -0.202710
  C     -3.275390   -1.213080   -0.045380
  C     -3.053900    0.150200    0.051820
  S      5.155640    2.888880    0.166450
  C      6.664520    1.991000    0.079320
  C      6.442140    0.636050   -0.098960
  C     -1.092550    2.465840    1.412510
  C     -1.173620    2.668240   -1.094700
  C     -0.993480    2.003240   -2.453890
  C     -0.822630    1.594410    2.633110
  C      4.502880   -1.603280   -1.660880
  C      4.534420   -1.917910    0.835640
  C      4.266880   -0.675320   -2.846290
  C      4.320840   -1.316140    2.219240
  C      7.914270    2.667950    0.212630
  C     -4.522100   -1.907610   -0.012440
  C      7.995670    4.040160    0.432400
  C      9.195190    4.720930    0.593680
  C     10.430960    4.084540    0.545540
  C     10.396660    2.682680    0.306500
  C      9.155470    1.974190    0.143110
  C     -4.599690   -3.295440   -0.086310
  C     -5.794660   -4.000310   -0.031880
  C     -7.029900   -3.374600    0.098710
  C     -7.000110   -1.953780    0.162000
  C     -5.763140   -1.220990    0.110150
  N     11.448790    1.874000    0.212110
  S     10.936510    0.376410   -0.056120
  N      9.354860    0.673590   -0.064800
  N     -8.052510   -1.148120    0.277060
  S     -7.545410    0.374590    0.315300
  N     -5.965930    0.093190    0.189590
  C     11.702550    4.707480    0.719510
  C     -8.295440   -4.028600    0.178600
  C     12.016300    5.993030    1.000960
  S     10.960980    7.368790    1.250840
  C     12.348490    8.460730    1.559000
  N     13.505570    7.749140    1.448170
  C     13.419520    6.398700    1.150650
  O     12.238850    9.625380    1.809800
  C     14.790630    8.386840    1.685040
  C     15.107240    8.448350    3.173340
  O     14.384830    5.681810    1.031150
  C     -8.598080   -5.347210    0.190540
  S     -7.530300   -6.734340    0.109360
  C     -8.901740   -7.880530    0.228030
  N    -10.063850   -7.173960    0.317880
  C     -9.993580   -5.790230    0.299360
  O     -8.779500   -9.070650    0.232610
  C    -11.341570   -7.863410    0.394550
  C    -11.812870   -8.303640   -0.985020
  O    -10.964420   -5.074650    0.375470
  H      1.600840   -2.090630   -0.366390
  H      1.784010    2.893520    0.139750
  H     -3.863230    0.848840    0.153730
  H      7.252250   -0.065040   -0.174200
  H     -0.434590    3.336740    1.436220
  H     -2.124130    2.822370    1.442580
  H     -2.201630    3.023360   -0.998400
  H     -0.510250    3.532430   -1.023170
  H     -1.672720    1.161030   -2.564230
  H     -1.200850    2.716390   -3.248080
  H      0.025450    1.641360   -2.573720
  H      0.201880    1.228490    2.626030
  H     -0.976240    2.169410    3.543080
  H     -1.493380    0.738480    2.651670
  H      5.532360   -1.966340   -1.684210
  H      3.839060   -2.466630   -1.738650
  H      3.876350   -2.779850    0.709460
  H      5.565570   -2.265890    0.747000
  H      4.943030    0.175790   -2.810370
  H      4.438490   -1.209560   -3.777670
  H      3.244730   -0.302850   -2.846530
  H      4.993110   -0.476920    2.382560
  H      3.297630   -0.964260    2.332310
  H      4.514230   -2.063570    2.984880
  H      7.074980    4.603050    0.486550
  H      9.159340    5.785080    0.764060
  H     -3.679500   -3.852930   -0.185370
  H     -5.755010   -5.075960   -0.093240
  H     12.554160    4.042610    0.620720
  H     -9.149800   -3.364010    0.252140
  H     15.535290    7.786160    1.157610
  H     14.747870    9.392520    1.260590
  H     15.143250    7.445160    3.592900
  H     16.072400    8.924190    3.321210
  H     14.348450    9.026600    3.696130
  H    -11.216110   -8.729080    1.049260
  H    -12.047080   -7.156010    0.836520
  H    -11.096400   -8.994020   -1.424290
  H    -12.772920   -8.804370   -0.899480
  H    -11.924430   -7.441380   -1.638670

 Total Charge           Charge          ....    0
 Multiplicity           Mult            ....    1
 Number of Electrons    NEL             ....  498
 Basis Dimension        Dim             .... 1120

ORBITAL ENERGIES
----------------

  NO   OCC          E(Eh)            E(eV)
   0   2.0000     -89.049891     -2423.1707
   1   2.0000     -89.049796     -2423.1681
   2   2.0000     -88.984140     -2421.3816
   3   2.0000     -88.984112     -2421.3808
   4   2.0000     -88.976191     -2421.1653
   5   2.0000     -88.975990     -2421.1598
   6   2.0000     -19.248997      -523.7918
   7   2.0000     -19.248844      -523.7877
   8   2.0000     -19.239315      -523.5284
   9   2.0000     -19.239273      -523.5272
  10   2.0000     -14.499927      -394.5631
  11   2.0000     -14.499693      -394.5567
  12   2.0000     -14.480450      -394.0331
  13   2.0000     -14.480440      -394.0328
  14   2.0000     -14.478235      -393.9728
  15   2.0000     -14.478213      -393.9722
  16   2.0000     -10.442235      -284.1477
  17   2.0000     -10.442163      -284.1457
  18   2.0000     -10.424129      -283.6550
  19   2.0000     -10.424104      -283.6543
  20   2.0000     -10.361390      -281.9477
  21   2.0000     -10.361359      -281.9469
  22   2.0000     -10.359669      -281.9009
  23   2.0000     -10.359560      -281.8979
  24   2.0000     -10.347209      -281.5619
  25   2.0000     -10.346980      -281.5556
  26   2.0000     -10.343737      -281.4674
  27   2.0000     -10.343735      -281.4673
  28   2.0000     -10.339579      -281.3543
  29   2.0000     -10.339500      -281.3521
  30   2.0000     -10.339250      -281.3453
  31   2.0000     -10.339215      -281.3443
  32   2.0000     -10.330755      -281.1141
  33   2.0000     -10.330693      -281.1125
  34   2.0000     -10.330357      -281.1033
  35   2.0000     -10.330113      -281.0967
  36   2.0000     -10.329557      -281.0815
  37   2.0000     -10.329470      -281.0792
  38   2.0000     -10.328876      -281.0630
  39   2.0000     -10.328781      -281.0604
  40   2.0000     -10.323048      -280.9044
  41   2.0000     -10.322992      -280.9029
  42   2.0000     -10.317510      -280.7537
  43   2.0000     -10.317459      -280.7523
  44   2.0000     -10.316471      -280.7254
  45   2.0000     -10.316418      -280.7240
  46   2.0000     -10.309430      -280.5338
  47   2.0000     -10.309318      -280.5308
  48   2.0000     -10.308816      -280.5172
  49   2.0000     -10.308752      -280.5154
  50   2.0000     -10.306917      -280.4655
  51   2.0000     -10.306814      -280.4627
  52   2.0000     -10.301316      -280.3131
  53   2.0000     -10.301277      -280.3120
  54   2.0000     -10.297714      -280.2151
  55   2.0000     -10.297651      -280.2133
  56   2.0000     -10.297614      -280.2123
  57   2.0000     -10.297559      -280.2108
  58   2.0000     -10.290163      -280.0096
  59   2.0000     -10.289963      -280.0041
  60   2.0000     -10.278717      -279.6981
  61   2.0000     -10.278686      -279.6973
  62   2.0000     -10.278684      -279.6972
  63   2.0000     -10.278633      -279.6958
  64   2.0000      -8.160572      -222.0605
  65   2.0000      -8.160528      -222.0593
  66   2.0000      -8.097452      -220.3429
  67   2.0000      -8.097436      -220.3424
  68   2.0000      -8.091778      -220.1885
  69   2.0000      -8.091647      -220.1849
  70   2.0000      -6.122095      -166.5907
  71   2.0000      -6.122045      -166.5893
  72   2.0000      -6.114065      -166.3722
  73   2.0000      -6.114024      -166.3710
  74   2.0000      -6.113075      -166.3452
  75   2.0000      -6.113011      -166.3435
  76   2.0000      -6.056906      -164.8168
  77   2.0000      -6.056887      -164.8163
  78   2.0000      -6.052915      -164.7082
  79   2.0000      -6.052902      -164.7078
  80   2.0000      -6.051582      -164.6719
  81   2.0000      -6.051456      -164.6685
  82   2.0000      -6.049838      -164.6244
  83   2.0000      -6.049822      -164.6240
  84   2.0000      -6.047885      -164.5713
  85   2.0000      -6.047759      -164.5679
  86   2.0000      -6.042485      -164.4244
  87   2.0000      -6.042320      -164.4199
  88   2.0000      -1.201472       -32.6937
  89   2.0000      -1.201428       -32.6925
  90   2.0000      -1.174121       -31.9495
  91   2.0000      -1.174012       -31.9465
  92   2.0000      -1.165834       -31.7239
  93   2.0000      -1.165820       -31.7236
  94   2.0000      -1.088312       -29.6145
  95   2.0000      -1.088183       -29.6110
  96   2.0000      -1.045505       -28.4496
  97   2.0000      -1.037792       -28.2398
  98   2.0000      -1.022856       -27.8333
  99   2.0000      -1.021596       -27.7990
 100   2.0000      -1.013121       -27.5684
 101   2.0000      -1.009003       -27.4564
 102   2.0000      -0.990742       -26.9595
 103   2.0000      -0.979354       -26.6496
 104   2.0000      -0.974725       -26.5236
 105   2.0000      -0.968829       -26.3632
 106   2.0000      -0.940781       -25.6000
 107   2.0000      -0.927825       -25.2474
 108   2.0000      -0.924075       -25.1454
 109   2.0000      -0.910605       -24.7788
 110   2.0000      -0.902023       -24.5453
 111   2.0000      -0.901978       -24.5441
 112   2.0000      -0.888803       -24.1856
 113   2.0000      -0.880101       -23.9488
 114   2.0000      -0.873933       -23.7809
 115   2.0000      -0.873847       -23.7786
 116   2.0000      -0.870378       -23.6842
 117   2.0000      -0.869483       -23.6598
 118   2.0000      -0.863562       -23.4987
 119   2.0000      -0.863470       -23.4962
 120   2.0000      -0.861360       -23.4388
 121   2.0000      -0.850246       -23.1364
 122   2.0000      -0.820127       -22.3168
 123   2.0000      -0.809208       -22.0197
 124   2.0000      -0.799236       -21.7483
 125   2.0000      -0.790325       -21.5058
 126   2.0000      -0.784984       -21.3605
 127   2.0000      -0.779333       -21.2067
 128   2.0000      -0.776230       -21.1223
 129   2.0000      -0.769520       -20.9397
 130   2.0000      -0.768875       -20.9221
 131   2.0000      -0.761150       -20.7119
 132   2.0000      -0.751394       -20.4465
 133   2.0000      -0.749237       -20.3878
 134   2.0000      -0.741572       -20.1792
 135   2.0000      -0.736301       -20.0358
 136   2.0000      -0.719994       -19.5920
 137   2.0000      -0.710670       -19.3383
 138   2.0000      -0.710225       -19.3262
 139   2.0000      -0.710096       -19.3227
 140   2.0000      -0.693280       -18.8651
 141   2.0000      -0.688809       -18.7434
 142   2.0000      -0.675737       -18.3877
 143   2.0000      -0.674782       -18.3617
 144   2.0000      -0.670982       -18.2583
 145   2.0000      -0.661132       -17.9903
 146   2.0000      -0.656771       -17.8716
 147   2.0000      -0.653382       -17.7794
 148   2.0000      -0.643670       -17.5151
 149   2.0000      -0.633292       -17.2328
 150   2.0000      -0.629910       -17.1407
 151   2.0000      -0.624919       -17.0049
 152   2.0000      -0.622734       -16.9455
 153   2.0000      -0.617572       -16.8050
 154   2.0000      -0.615354       -16.7446
 155   2.0000      -0.611147       -16.6302
 156   2.0000      -0.602398       -16.3921
 157   2.0000      -0.601699       -16.3731
 158   2.0000      -0.592560       -16.1244
 159   2.0000      -0.592160       -16.1135
 160   2.0000      -0.588835       -16.0230
 161   2.0000      -0.588671       -16.0186
 162   2.0000      -0.583407       -15.8753
 163   2.0000      -0.581482       -15.8229
 164   2.0000      -0.578235       -15.7346
 165   2.0000      -0.576668       -15.6919
 166   2.0000      -0.575277       -15.6541
 167   2.0000      -0.571966       -15.5640
 168   2.0000      -0.565723       -15.3941
 169   2.0000      -0.565695       -15.3933
 170   2.0000      -0.560910       -15.2631
 171   2.0000      -0.559059       -15.2128
 172   2.0000      -0.553874       -15.0717
 173   2.0000      -0.552094       -15.0232
 174   2.0000      -0.551570       -15.0090
 175   2.0000      -0.550020       -14.9668
 176   2.0000      -0.542579       -14.7643
 177   2.0000      -0.542425       -14.7601
 178   2.0000      -0.539662       -14.6849
 179   2.0000      -0.538948       -14.6655
 180   2.0000      -0.528458       -14.3801
 181   2.0000      -0.527146       -14.3444
 182   2.0000      -0.521676       -14.1955
 183   2.0000      -0.521610       -14.1937
 184   2.0000      -0.520779       -14.1711
 185   2.0000      -0.515374       -14.0241
 186   2.0000      -0.514176       -13.9914
 187   2.0000      -0.513863       -13.9829
 188   2.0000      -0.510053       -13.8793
 189   2.0000      -0.507072       -13.7981
 190   2.0000      -0.506784       -13.7903
 191   2.0000      -0.503762       -13.7081
 192   2.0000      -0.502827       -13.6826
 193   2.0000      -0.502375       -13.6703
 194   2.0000      -0.502319       -13.6688
 195   2.0000      -0.497361       -13.5339
 196   2.0000      -0.494613       -13.4591
 197   2.0000      -0.492033       -13.3889
 198   2.0000      -0.491231       -13.3671
 199   2.0000      -0.488696       -13.2981
 200   2.0000      -0.488380       -13.2895
 201   2.0000      -0.485640       -13.2149
 202   2.0000      -0.484140       -13.1741
 203   2.0000      -0.481120       -13.0920
 204   2.0000      -0.479571       -13.0498
 205   2.0000      -0.473070       -12.8729
 206   2.0000      -0.469785       -12.7835
 207   2.0000      -0.469293       -12.7701
 208   2.0000      -0.465913       -12.6781
 209   2.0000      -0.465413       -12.6645
 210   2.0000      -0.457957       -12.4616
 211   2.0000      -0.456774       -12.4295
 212   2.0000      -0.456310       -12.4168
 213   2.0000      -0.456295       -12.4164
 214   2.0000      -0.455746       -12.4015
 215   2.0000      -0.452780       -12.3208
 216   2.0000      -0.452276       -12.3071
 217   2.0000      -0.438491       -11.9320
 218   2.0000      -0.437948       -11.9172
 219   2.0000      -0.433262       -11.7897
 220   2.0000      -0.431594       -11.7443
 221   2.0000      -0.431333       -11.7372
 222   2.0000      -0.431214       -11.7339
 223   2.0000      -0.428567       -11.6619
 224   2.0000      -0.427956       -11.6453
 225   2.0000      -0.422610       -11.4998
 226   2.0000      -0.419867       -11.4252
 227   2.0000      -0.419475       -11.4145
 228   2.0000      -0.414255       -11.2725
 229   2.0000      -0.406020       -11.0484
 230   2.0000      -0.403385       -10.9767
 231   2.0000      -0.403306       -10.9745
 232   2.0000      -0.400572       -10.9001
 233   2.0000      -0.400431       -10.8963
 234   2.0000      -0.384723       -10.4688
 235   2.0000      -0.382222       -10.4008
 236   2.0000      -0.376343       -10.2408
 237   2.0000      -0.372295       -10.1307
 238   2.0000      -0.372280       -10.1303
 239   2.0000      -0.371038       -10.0965
 240   2.0000      -0.370414       -10.0795
 241   2.0000      -0.364623        -9.9219
 242   2.0000      -0.354700        -9.6519
 243   2.0000      -0.352520        -9.5926
 244   2.0000      -0.344125        -9.3641
 245   2.0000      -0.340964        -9.2781
 246   2.0000      -0.319185        -8.6855
 247   2.0000      -0.288517        -7.8509
 248   2.0000      -0.258356        -7.0302
 249   0.0000      -0.066303        -1.8042
 250   0.0000      -0.056591        -1.5399
 251   0.0000      -0.001006        -0.0274
 252   0.0000       0.003163         0.0861
 253   0.0000       0.004204         0.1144

MULLIKEN ATOMIC CHARGES
-----------------------
   0 C :    0.037638
   1 C :   -0.009774
   2 C :   -0.085831
   3 C :    0.038433
   4 C :   -0.011598
   5 C :   -0.085745
   6 C :   -0.032032
   7 C :    0.024444
   8 C :   -0.220158
   9 C :   -0.031861
  10 C :    0.024096
  11 C :   -0.221866
  12 S :    0.117205
  13 C :   -0.123204
  14 C :   -0.041220
  15 S :    0.117419
  16 C :   -0.123685
  17 C :   -0.040505
  18 C :    0.032089
  19 C :    0.036533
  20 C :   -0.019696
  21 C :   -0.016857
  22 C :    0.035127
  23 C :    0.033587
  24 C :   -0.018435
  25 C :   -0.018432
  26 C :    0.112824
  27 C :    0.111449
  28 C :   -0.070059
  29 C :   -0.032320
  30 C :    0.015092
  31 C :    0.037035
  32 C :    0.031949
  33 C :   -0.067329
  34 C :   -0.036700
  35 C :    0.017229
  36 C :    0.034765
  37 C :    0.033007
  38 N :   -0.305480
  39 S :    0.528441
  40 N :   -0.324367
  41 N :   -0.305158
  42 S :    0.528659
  43 N :   -0.323336
  44 C :   -0.002696
  45 C :   -0.001099
  46 C :   -0.173894
  47 S :    0.009989
  48 C :    0.220211
  49 N :   -0.332300
  50 C :    0.290059
  51 O :   -0.204401
  52 C :    0.078498
  53 C :   -0.059423
  54 O :   -0.207119
  55 C :   -0.175260
  56 S :    0.009398
  57 C :    0.222316
  58 N :   -0.331334
  59 C :    0.289450
  60 O :   -0.206208
  61 C :    0.074254
  62 C :   -0.060187
  63 O :   -0.206761
  64 H :   -0.014372
  65 H :   -0.014364
  66 H :    0.016646
  67 H :    0.016775
  68 H :    0.021320
  69 H :    0.025097
  70 H :    0.024985
  71 H :    0.021333
  72 H :    0.041239
  73 H :    0.033025
  74 H :    0.038128
  75 H :    0.037397
  76 H :    0.032168
  77 H :    0.040800
  78 H :    0.025336
  79 H :    0.021492
  80 H :    0.021266
  81 H :    0.024887
  82 H :    0.041354
  83 H :    0.031897
  84 H :    0.037806
  85 H :    0.040928
  86 H :    0.037870
  87 H :    0.033197
  88 H :    0.021167
  89 H :    0.023783
  90 H :    0.020753
  91 H :    0.024791
  92 H :    0.059100
  93 H :    0.058872
  94 H :    0.064038
  95 H :    0.058300
  96 H :    0.047106
  97 H :    0.045752
  98 H :    0.053004
  99 H :    0.059910
 100 H :    0.065418
 101 H :    0.054005
 102 H :    0.046296
 103 H :    0.046626
Sum of atomic charges:   -0.0000000

LOEWDIN ATOMIC CHARGES
----------------------
   0 C :   -0.032968
   1 C :    0.005733
   2 C :   -0.026010
   3 C :   -0.033044
   4 C :    0.005739
   5 C :   -0.026063
   6 C :   -0.170515
   7 C :   -0.046336
   8 C :   -0.039875
   9 C :   -0.170599
  10 C :   -0.046369
  11 C :   -0.039840
  12 S :    0.424897
  13 C :   -0.168965
  14 C :   -0.033932
  15 S :    0.424863
  16 C :   -0.169028
  17 C :   -0.033956
  18 C :   -0.015075
  19 C :   -0.014265
  20 C :   -0.059895
  21 C :   -0.059578
  22 C :   -0.014409
  23 C :   -0.015011
  24 C :   -0.059690
  25 C :   -0.059854
  26 C :   -0.023627
  27 C :   -0.023546
  28 C :   -0.030963
  29 C :    0.003892
  30 C :   -0.058588
  31 C :   -0.036274
  32 C :   -0.041317
  33 C :   -0.030935
  34 C :    0.003606
  35 C :   -0.058570
  36 C :   -0.036341
  37 C :   -0.041386
  38 N :   -0.282142
  39 S :    0.640579
  40 N :   -0.281914
  41 N :   -0.282375
  42 S :    0.640607
  43 N :   -0.281811
  44 C :    0.018326
  45 C :    0.018691
  46 C :   -0.212864
  47 S :    0.322135
  48 C :   -0.035791
  49 N :   -0.050298
  50 C :    0.080109
  51 O :   -0.172710
  52 C :    0.046160
  53 C :   -0.062685
  54 O :   -0.174845
  55 C :   -0.212556
  56 S :    0.322864
  57 C :   -0.035906
  58 N :   -0.050430
  59 C :    0.080111
  60 O :   -0.173165
  61 C :    0.045705
  62 C :   -0.063063
  63 O :   -0.174828
  64 H :    0.029241
  65 H :    0.029235
  66 H :    0.032190
  67 H :    0.032131
  68 H :    0.021968
  69 H :    0.024406
  70 H :    0.024350
  71 H :    0.022087
  72 H :    0.027425
  73 H :    0.027158
  74 H :    0.026387
  75 H :    0.026368
  76 H :    0.026935
  77 H :    0.027377
  78 H :    0.024419
  79 H :    0.022107
  80 H :    0.021973
  81 H :    0.024376
  82 H :    0.027460
  83 H :    0.026911
  84 H :    0.026390
  85 H :    0.027399
  86 H :    0.026381
  87 H :    0.027164
  88 H :    0.028705
  89 H :    0.023288
  90 H :    0.028570
  91 H :    0.023034
  92 H :    0.054466
  93 H :    0.054469
  94 H :    0.036545
  95 H :    0.034435
  96 H :    0.031127
  97 H :    0.034098
  98 H :    0.031481
  99 H :    0.034648
 100 H :    0.036694
 101 H :    0.031615
 102 H :    0.034194
 103 H :    0.030981

  Mayer bond orders larger than 0.100000
B(  0-C ,  1-C ) :   1.3704 B(  0-C ,  5-C ) :   1.3252 B(  0-C ,  9-C ) :   1.0728
B(  1-C ,  2-C ) :   1.4225 B(  1-C , 11-C ) :   0.9023 B(  2-C ,  3-C ) :   1.3251
B(  2-C , 64-H ) :   1.0055 B(  3-C ,  4-C ) :   1.3707 B(  3-C ,  6-C ) :   1.0725
B(  4-C ,  5-C ) :   1.4225 B(  4-C ,  8-C ) :   0.9021 B(  5-C , 65-H ) :   1.0055
B(  6-C ,  7-C ) :   1.5267 B(  6-C , 12-S ) :   1.1075 B(  7-C ,  8-C ) :   0.9291
B(  7-C , 14-C ) :   1.2763 B(  8-C , 18-C ) :   1.0395 B(  8-C , 19-C ) :   1.0365
B(  9-C , 10-C ) :   1.5261 B(  9-C , 15-S ) :   1.1074 B( 10-C , 11-C ) :   0.9296
B( 10-C , 17-C ) :   1.2764 B( 11-C , 22-C ) :   1.0349 B( 11-C , 23-C ) :   1.0409
B( 12-S , 13-C ) :   1.0960 B( 13-C , 14-C ) :   1.4891 B( 13-C , 27-C ) :   1.1378
B( 14-C , 66-H ) :   0.9982 B( 15-S , 16-C ) :   1.0965 B( 16-C , 17-C ) :   1.4883
B( 16-C , 26-C ) :   1.1377 B( 17-C , 67-H ) :   0.9984 B( 18-C , 21-C ) :   1.0877
B( 18-C , 68-H ) :   0.9466 B( 18-C , 69-H ) :   0.9475 B( 19-C , 20-C ) :   1.0872
B( 19-C , 70-H ) :   0.9479 B( 19-C , 71-H ) :   0.9470 B( 20-C , 72-H ) :   0.9675
B( 20-C , 73-H ) :   0.9701 B( 20-C , 74-H ) :   0.9676 B( 21-C , 75-H ) :   0.9674
B( 21-C , 76-H ) :   0.9703 B( 21-C , 77-H ) :   0.9674 B( 22-C , 24-C ) :   1.0874
B( 22-C , 78-H ) :   0.9482 B( 22-C , 79-H ) :   0.9473 B( 23-C , 25-C ) :   1.0875
B( 23-C , 80-H ) :   0.9463 B( 23-C , 81-H ) :   0.9473 B( 24-C , 82-H ) :   0.9674
B( 24-C , 83-H ) :   0.9702 B( 24-C , 84-H ) :   0.9677 B( 25-C , 85-H ) :   0.9676
B( 25-C , 86-H ) :   0.9673 B( 25-C , 87-H ) :   0.9702 B( 26-C , 28-C ) :   1.4529
B( 26-C , 30-C ) :   0.1009 B( 26-C , 32-C ) :   1.1916 B( 27-C , 33-C ) :   1.4546
B( 27-C , 35-C ) :   0.1004 B( 27-C , 37-C ) :   1.1908 B( 28-C , 29-C ) :   1.2942
B( 28-C , 88-H ) :   0.9862 B( 29-C , 30-C ) :   1.4359 B( 29-C , 89-H ) :   0.9792
B( 30-C , 31-C ) :   1.1703 B( 30-C , 44-C ) :   1.1175 B( 31-C , 32-C ) :   1.1569
B( 31-C , 38-N ) :   1.5486 B( 32-C , 40-N ) :   1.5165 B( 33-C , 34-C ) :   1.2956
B( 33-C , 90-H ) :   0.9856 B( 34-C , 35-C ) :   1.4331 B( 34-C , 91-H ) :   0.9796
B( 35-C , 36-C ) :   1.1723 B( 35-C , 45-C ) :   1.1171 B( 36-C , 37-C ) :   1.1562
B( 36-C , 41-N ) :   1.5496 B( 37-C , 43-N ) :   1.5169 B( 38-N , 39-S ) :   1.2711
B( 38-N , 40-N ) :   0.1479 B( 39-S , 40-N ) :   1.2656 B( 41-N , 42-S ) :   1.2704
B( 41-N , 43-N ) :   0.1479 B( 42-S , 43-N ) :   1.2659 B( 44-C , 46-C ) :   1.7516
B( 44-C , 92-H ) :   0.9611 B( 45-C , 55-C ) :   1.7525 B( 45-C , 93-H ) :   0.9613
B( 46-C , 47-S ) :   1.0096 B( 46-C , 50-C ) :   0.9520 B( 47-S , 48-C ) :   0.9777
B( 48-C , 49-N ) :   1.0708 B( 48-C , 51-O ) :   2.1011 B( 49-N , 50-C ) :   1.0436
B( 49-N , 52-C ) :   0.8921 B( 50-C , 54-O ) :   2.1350 B( 52-C , 53-C ) :   1.1030
B( 52-C , 94-H ) :   0.9454 B( 52-C , 95-H ) :   0.9528 B( 53-C , 96-H ) :   0.9707
B( 53-C , 97-H ) :   0.9751 B( 53-C , 98-H ) :   0.9719 B( 55-C , 56-S ) :   1.0090
B( 55-C , 59-C ) :   0.9528 B( 56-S , 57-C ) :   0.9788 B( 57-C , 58-N ) :   1.0702
B( 57-C , 60-O ) :   2.0985 B( 58-N , 59-C ) :   1.0432 B( 58-N , 61-C ) :   0.8915
B( 59-C , 63-O ) :   2.1362 B( 61-C , 62-C ) :   1.1043 B( 61-C , 99-H ) :   0.9532
B( 61-C ,100-H ) :   0.9450 B( 62-C ,101-H ) :   0.9715 B( 62-C ,102-H ) :   0.9744
B( 62-C ,103-H ) :   0.9708

-----------------------------------------------------------------------------
         ABSORPTION SPECTRUM VIA TRANSITION ELECTRIC DIPOLE MOMENTS
-----------------------------------------------------------------------------
State   Energy  Wavelength   fosc         T2         TX        TY        TZ
        (cm-1)    (nm)                  (au**2)     (au)      (au)      (au)
-----------------------------------------------------------------------------
   0   18871.2    529.9   3.216510935  56.11266   6.65712   3.42627   0.23687
   1   23954.5    417.5   0.016608837   0.22826  -0.00818   0.05464  -0.47456
   2   31805.0    314.4   0.244025930   2.52590   1.18501  -1.04947  -0.14233
   3   32273.2    309.9   0.002927933   0.02987   0.00745  -0.01523   0.17199
   4   33938.2    294.7   0.431898496   4.18956   0.67216   1.92348   0.19491
   5   36780.2    271.9   0.008695073   0.07783   0.00892  -0.03018   0.27720
   6   37369.7    267.6   0.634011258   5.58538  -0.41530  -2.31398  -0.24170
   7   39057.8    256.0   0.001202304   0.01013   0.00591  -0.01400   0.09951
   8   39652.8    252.2   0.146345653   1.21502   0.98350  -0.49334  -0.06600

Dispersion correction           -0.063761993
FINAL SINGLE POINT ENERGY     -4868.618478339447

DIPOLE MOMENT
-------------
                                X             Y             Z
Electronic contribution:      0.33608       0.81065       0.78970
Nuclear contribution   :     -0.34146      -0.80495      -0.97073
                        -----------------------------------------
Total Dipole Moment    :     -0.00538       0.00570      -0.18103
                        -----------------------------------------
Magnitude (a.u.)       :      0.18120
Magnitude (Debye)      :      0.46058

Rotational constants in cm-1:     0.003299     0.000220     0.000210
Rotational constants in MHz :    98.891169     6.603400     6.301272

                             ****ORCA TERMINATED NORMALLY****
TOTAL RUN TIME: 0 days 0 hours 8 minutes 56 seconds 684 msec
