                         Program Version 4.2.0 -  RELEASE  -
|  1> # ORCA input file
|  2> # SCF done       -216.170045742950          0.000821139744
|  3> ! wb97x-d3 def2-SVP def2/J RIJCOSX Grid4 TightSCF
|  4> %maxcore 5000
|  5> %tddft
|  6>     Mode sTDA
|  7>     Ethresh 5.0
|  8>     maxcore 5000
|  9> end
| 10>
| 11> %pal
| 12>   nprocs 6
| 13>   end
| 14> * xyz 0 1
| 15>    C        1.63901         2.51735       -10.86868
| 16>    O        0.69976         2.22240       -10.15129
| 17>    C        2.08037         1.77583       -12.06944
| 18>    C        1.53761         0.63200       -12.61886
| 19>    C        2.13283         0.12457       -13.76280
| 20>    C        3.23979         0.75746       -14.32714
| 21>    C        3.78508         1.90676       -13.77292
| 22>    C        3.19586         2.42060       -12.62880
| 23>    C        3.51782         3.59510       -11.81405
| 24>    C        4.55360         4.45996       -12.06062
| 25>    C        4.88228         5.59710       -11.29361
| 26>    N        5.22067         6.53753       -10.72688
| 27>    C        5.45439         4.32790       -13.13864
| 28>    N        6.21853         4.28146       -13.99384
| 29>    C        2.55384         3.65055       -10.73628
| 30>    F        3.79434         0.24708       -15.43293
| 31>    C        2.50254         4.61436        -9.75298
| 32>    F        1.63948        -0.98298       -14.33146
| 33>    C      -13.08487         7.15267         4.82783
| 34>    O      -12.02187         7.43299         4.30411
| 35>    C      -13.77100         7.93659         5.87695
| 36>    C      -13.36603         9.11518         6.46998
| 37>    C      -14.19155         9.66214         7.43951
| 38>    C      -15.38508         9.03321         7.79266
| 39>    C      -15.79080         7.84830         7.19544
| 40>    C      -14.97105         7.29467         6.22503
| 41>    C      -15.10612         6.07912         5.41836
| 42>    C      -16.16594         5.21026         5.48001
| 43>    C      -16.32193         4.04139         4.70642
| 44>    N      -16.53130         3.07959         4.11362
| 45>    C      -17.27309         5.37274         6.33949
| 46>    N      -18.19758         5.43959         7.01655
| 47>    C      -13.93952         5.99457         4.56657
| 48>    F      -16.16332         9.58294         8.73222
| 49>    C      -13.67337         4.98846         3.66431
| 50>    F      -13.84005        10.80457         8.04254
| 51>    C      -12.60309         4.81237         2.78611
| 52>    S      -11.22201         5.88336         2.57457
| 53>    C      -10.60751         4.84075         1.37004
| 54>    C      -11.42092         3.71576         1.12000
| 55>    C      -12.53057         3.69918         1.92650
| 56>    C       -9.47078         4.76265         0.54009
| 57>    C       -9.54279         3.60115        -0.23612
| 58>    C      -10.81829         2.84134         0.04525
| 59>    S       -8.05686         5.67837         0.23122
| 60>    C       -7.55321         4.50280        -0.96327
| 61>    C       -8.46079         3.45720        -1.08706
| 62>    C       -6.35120         4.65651        -1.71823
| 63>    C       -5.45940         5.71531        -1.56712
| 64>    C       -4.29845         5.88842        -2.32988
| 65>    C       -3.90340         5.01411        -3.33766
| 66>    C       -4.78417         3.91689        -3.49946
| 67>    C       -5.96479         3.73385        -2.72499
| 68>    N       -4.70197         2.89213        -4.35427
| 69>    N       -5.75251         2.16730        -4.09745
| 70>    N       -6.54106         2.60146        -3.15425
| 71>    C       -2.75295         5.16016        -4.17198
| 72>    S       -2.46546         3.97438        -5.42573
| 73>    C       -1.06741         4.83719        -5.91956
| 74>    C       -0.82510         5.97333        -5.13887
| 75>    C       -1.78731         6.15910        -4.15834
| 76>    C       -0.09881         4.75322        -6.93979
| 77>    C        0.77550         5.85045        -6.81209
| 78>    C        0.40716         6.70234        -5.61792
| 79>    S        0.26703         3.73518        -8.26142
| 80>    C        1.62449         4.77638        -8.68093
| 81>    C        1.74155         5.85694        -7.78519
| 82>    F       -3.55927         6.97725        -2.04671
| 83>    C        1.56396         6.62019        -4.59678
| 84>    C        1.28183         7.27102        -3.24948
| 85>    C        0.09970         8.15446        -6.01563
| 86>    C       -0.96002         8.25342        -7.10677
| 87>    C      -11.66508         2.84029        -1.24679
| 88>    C      -13.06453         2.25826        -1.10221
| 89>    C      -10.54270         1.41593         0.54888
| 90>    C       -9.59087         1.38807         1.73908
| 91>    C       -6.04689         0.97980        -4.84716
| 92>    C       -6.65023         1.34406        -6.20007
| 93>    F       -5.70738         6.65726        -0.63755
| 94>    H        0.68089         0.14732       -12.17867
| 95>    H        4.64084         2.35555       -14.24948
| 96>    H        3.25655         5.39050        -9.80166
| 97>    H      -12.44209         9.59707         6.19277
| 98>    H      -16.72203         7.40417         7.50597
| 99>    H      -14.40401         4.19095         3.60496
|100>    H      -13.28551         2.93318         1.94260
|101>    H       -8.29923         2.64967        -1.77594
|102>    H       -1.80891         6.98377        -3.47169
|103>    H        2.51662         6.59498        -7.89342
|104>    H        1.79737         5.56439        -4.43752
|105>    H        2.44019         7.08861        -5.04962
|106>    H        0.44063         6.79314        -2.75567
|107>    H        2.15460         7.16450        -2.60943
|108>    H        1.07158         8.33136        -3.35656
|109>    H       -0.24810         8.69359        -5.13424
|110>    H        1.02351         8.62248        -6.36070
|111>    H       -1.89482         7.80564        -6.77707
|112>    H       -1.14684         9.29663        -7.34911
|113>    H       -0.63547         7.74428        -8.01135
|114>    H      -11.74632         3.87262        -1.59613
|115>    H      -11.11377         2.27735        -2.00293
|116>    H      -13.65151         2.83231        -0.39118
|117>    H      -13.57035         2.29470        -2.06433
|118>    H      -13.03267         1.22191        -0.77817
|119>    H      -11.48818         0.95744         0.83955
|120>    H      -10.11721         0.83463        -0.27143
|121>    H       -9.99565         1.96250         2.56920
|122>    H       -9.44173         0.36394         2.07223
|123>    H       -8.62323         1.80603         1.47144
|124>    H       -5.11247         0.43252        -4.98750
|125>    H       -6.74528         0.38754        -4.25397
|126>    H       -5.95194         1.95681        -6.76438
|127>    H       -6.85979         0.44027        -6.76430
|128>    H       -7.57728         1.89636        -6.06619
|129> *
|130>
|131>                          ****END OF INPUT****

CARTESIAN COORDINATES (ANGSTROEM)
---------------------------------
  C      1.639010    2.517350  -10.868680
  O      0.699760    2.222400  -10.151290
  C      2.080370    1.775830  -12.069440
  C      1.537610    0.632000  -12.618860
  C      2.132830    0.124570  -13.762800
  C      3.239790    0.757460  -14.327140
  C      3.785080    1.906760  -13.772920
  C      3.195860    2.420600  -12.628800
  C      3.517820    3.595100  -11.814050
  C      4.553600    4.459960  -12.060620
  C      4.882280    5.597100  -11.293610
  N      5.220670    6.537530  -10.726880
  C      5.454390    4.327900  -13.138640
  N      6.218530    4.281460  -13.993840
  C      2.553840    3.650550  -10.736280
  F      3.794340    0.247080  -15.432930
  C      2.502540    4.614360   -9.752980
  F      1.639480   -0.982980  -14.331460
  C    -13.084870    7.152670    4.827830
  O    -12.021870    7.432990    4.304110
  C    -13.771000    7.936590    5.876950
  C    -13.366030    9.115180    6.469980
  C    -14.191550    9.662140    7.439510
  C    -15.385080    9.033210    7.792660
  C    -15.790800    7.848300    7.195440
  C    -14.971050    7.294670    6.225030
  C    -15.106120    6.079120    5.418360
  C    -16.165940    5.210260    5.480010
  C    -16.321930    4.041390    4.706420
  N    -16.531300    3.079590    4.113620
  C    -17.273090    5.372740    6.339490
  N    -18.197580    5.439590    7.016550
  C    -13.939520    5.994570    4.566570
  F    -16.163320    9.582940    8.732220
  C    -13.673370    4.988460    3.664310
  F    -13.840050   10.804570    8.042540
  C    -12.603090    4.812370    2.786110
  S    -11.222010    5.883360    2.574570
  C    -10.607510    4.840750    1.370040
  C    -11.420920    3.715760    1.120000
  C    -12.530570    3.699180    1.926500
  C     -9.470780    4.762650    0.540090
  C     -9.542790    3.601150   -0.236120
  C    -10.818290    2.841340    0.045250
  S     -8.056860    5.678370    0.231220
  C     -7.553210    4.502800   -0.963270
  C     -8.460790    3.457200   -1.087060
  C     -6.351200    4.656510   -1.718230
  C     -5.459400    5.715310   -1.567120
  C     -4.298450    5.888420   -2.329880
  C     -3.903400    5.014110   -3.337660
  C     -4.784170    3.916890   -3.499460
  C     -5.964790    3.733850   -2.724990
  N     -4.701970    2.892130   -4.354270
  N     -5.752510    2.167300   -4.097450
  N     -6.541060    2.601460   -3.154250
  C     -2.752950    5.160160   -4.171980
  S     -2.465460    3.974380   -5.425730
  C     -1.067410    4.837190   -5.919560
  C     -0.825100    5.973330   -5.138870
  C     -1.787310    6.159100   -4.158340
  C     -0.098810    4.753220   -6.939790
  C      0.775500    5.850450   -6.812090
  C      0.407160    6.702340   -5.617920
  S      0.267030    3.735180   -8.261420
  C      1.624490    4.776380   -8.680930
  C      1.741550    5.856940   -7.785190
  F     -3.559270    6.977250   -2.046710
  C      1.563960    6.620190   -4.596780
  C      1.281830    7.271020   -3.249480
  C      0.099700    8.154460   -6.015630
  C     -0.960020    8.253420   -7.106770
  C    -11.665080    2.840290   -1.246790
  C    -13.064530    2.258260   -1.102210
  C    -10.542700    1.415930    0.548880
  C     -9.590870    1.388070    1.739080
  C     -6.046890    0.979800   -4.847160
  C     -6.650230    1.344060   -6.200070
  F     -5.707380    6.657260   -0.637550
  H      0.680890    0.147320  -12.178670
  H      4.640840    2.355550  -14.249480
  H      3.256550    5.390500   -9.801660
  H    -12.442090    9.597070    6.192770
  H    -16.722030    7.404170    7.505970
  H    -14.404010    4.190950    3.604960
  H    -13.285510    2.933180    1.942600
  H     -8.299230    2.649670   -1.775940
  H     -1.808910    6.983770   -3.471690
  H      2.516620    6.594980   -7.893420
  H      1.797370    5.564390   -4.437520
  H      2.440190    7.088610   -5.049620
  H      0.440630    6.793140   -2.755670
  H      2.154600    7.164500   -2.609430
  H      1.071580    8.331360   -3.356560
  H     -0.248100    8.693590   -5.134240
  H      1.023510    8.622480   -6.360700
  H     -1.894820    7.805640   -6.777070
  H     -1.146840    9.296630   -7.349110
  H     -0.635470    7.744280   -8.011350
  H    -11.746320    3.872620   -1.596130
  H    -11.113770    2.277350   -2.002930
  H    -13.651510    2.832310   -0.391180
  H    -13.570350    2.294700   -2.064330
  H    -13.032670    1.221910   -0.778170
  H    -11.488180    0.957440    0.839550
  H    -10.117210    0.834630   -0.271430
  H     -9.995650    1.962500    2.569200
  H     -9.441730    0.363940    2.072230
  H     -8.623230    1.806030    1.471440
  H     -5.112470    0.432520   -4.987500
  H     -6.745280    0.387540   -4.253970
  H     -5.951940    1.956810   -6.764380
  H     -6.859790    0.440270   -6.764300
  H     -7.577280    1.896360   -6.066190

 Total Charge           Charge          ....    0
 Multiplicity           Mult            ....    1
 Number of Electrons    NEL             ....  578
 Basis Dimension        Dim             .... 1297

ORBITAL ENERGIES
----------------

  NO   OCC          E(Eh)            E(eV)
   0   2.0000     -88.997788     -2421.7529
   1   2.0000     -88.996503     -2421.7180
   2   2.0000     -88.996461     -2421.7168
   3   2.0000     -88.996402     -2421.7152
   4   2.0000     -24.843089      -676.0148
   5   2.0000     -24.841816      -675.9802
   6   2.0000     -24.832843      -675.7360
   7   2.0000     -24.831632      -675.7031
   8   2.0000     -24.830809      -675.6807
   9   2.0000     -24.829891      -675.6557
  10   2.0000     -19.258244      -524.0435
  11   2.0000     -19.257533      -524.0241
  12   2.0000     -14.596154      -397.1815
  13   2.0000     -14.501481      -394.6054
  14   2.0000     -14.499890      -394.5621
  15   2.0000     -14.452181      -393.2638
  16   2.0000     -14.451925      -393.2569
  17   2.0000     -14.447592      -393.1390
  18   2.0000     -14.447175      -393.1276
  19   2.0000     -10.422383      -283.6075
  20   2.0000     -10.421096      -283.5724
  21   2.0000     -10.418262      -283.4953
  22   2.0000     -10.417588      -283.4770
  23   2.0000     -10.417163      -283.4654
  24   2.0000     -10.416502      -283.4474
  25   2.0000     -10.405535      -283.1490
  26   2.0000     -10.404712      -283.1266
  27   2.0000     -10.379869      -282.4506
  28   2.0000     -10.379319      -282.4356
  29   2.0000     -10.375029      -282.3189
  30   2.0000     -10.374510      -282.3048
  31   2.0000     -10.372080      -282.2386
  32   2.0000     -10.362628      -281.9814
  33   2.0000     -10.361217      -281.9431
  34   2.0000     -10.361042      -281.9383
  35   2.0000     -10.360160      -281.9143
  36   2.0000     -10.358913      -281.8804
  37   2.0000     -10.358883      -281.8795
  38   2.0000     -10.358506      -281.8693
  39   2.0000     -10.357914      -281.8532
  40   2.0000     -10.354079      -281.7488
  41   2.0000     -10.353634      -281.7367
  42   2.0000     -10.353398      -281.7303
  43   2.0000     -10.353309      -281.7279
  44   2.0000     -10.350612      -281.6545
  45   2.0000     -10.350186      -281.6429
  46   2.0000     -10.349338      -281.6198
  47   2.0000     -10.349247      -281.6173
  48   2.0000     -10.348836      -281.6061
  49   2.0000     -10.348451      -281.5957
  50   2.0000     -10.345139      -281.5055
  51   2.0000     -10.343644      -281.4649
  52   2.0000     -10.341480      -281.4060
  53   2.0000     -10.340621      -281.3826
  54   2.0000     -10.340300      -281.3739
  55   2.0000     -10.339684      -281.3571
  56   2.0000     -10.335347      -281.2391
  57   2.0000     -10.334791      -281.2240
  58   2.0000     -10.334680      -281.2209
  59   2.0000     -10.334274      -281.2099
  60   2.0000     -10.333841      -281.1981
  61   2.0000     -10.333835      -281.1980
  62   2.0000     -10.327051      -281.0134
  63   2.0000     -10.326523      -280.9990
  64   2.0000     -10.323086      -280.9055
  65   2.0000     -10.322535      -280.8905
  66   2.0000     -10.322400      -280.8868
  67   2.0000     -10.319773      -280.8153
  68   2.0000     -10.318969      -280.7934
  69   2.0000     -10.318829      -280.7896
  70   2.0000     -10.318719      -280.7866
  71   2.0000     -10.310512      -280.5633
  72   2.0000     -10.309957      -280.5482
  73   2.0000     -10.309475      -280.5351
  74   2.0000     -10.308862      -280.5184
  75   2.0000     -10.294673      -280.1323
  76   2.0000     -10.293303      -280.0950
  77   2.0000     -10.289873      -280.0017
  78   2.0000     -10.289133      -279.9815
  79   2.0000      -8.110816      -220.7065
  80   2.0000      -8.108989      -220.6568
  81   2.0000      -8.107975      -220.6292
  82   2.0000      -8.107942      -220.6283
  83   2.0000      -6.070374      -165.1833
  84   2.0000      -6.068629      -165.1358
  85   2.0000      -6.067638      -165.1088
  86   2.0000      -6.067602      -165.1078
  87   2.0000      -6.066057      -165.0658
  88   2.0000      -6.064180      -165.0147
  89   2.0000      -6.063141      -164.9865
  90   2.0000      -6.062993      -164.9824
  91   2.0000      -6.062988      -164.9823
  92   2.0000      -6.061298      -164.9363
  93   2.0000      -6.060378      -164.9113
  94   2.0000      -6.060326      -164.9098
  95   2.0000      -1.372005       -37.3342
  96   2.0000      -1.362123       -37.0652
  97   2.0000      -1.361117       -37.0379
  98   2.0000      -1.353790       -36.8385
  99   2.0000      -1.347054       -36.6552
 100   2.0000      -1.346031       -36.6274
 101   2.0000      -1.281063       -34.8595
 102   2.0000      -1.176331       -32.0096
 103   2.0000      -1.175771       -31.9943
 104   2.0000      -1.064071       -28.9548
 105   2.0000      -1.063456       -28.9381
 106   2.0000      -1.059214       -28.8227
 107   2.0000      -1.058598       -28.8059
 108   2.0000      -1.053905       -28.6782
 109   2.0000      -1.049074       -28.5468
 110   2.0000      -1.041111       -28.3301
 111   2.0000      -1.040461       -28.3124
 112   2.0000      -1.030983       -28.0545
 113   2.0000      -1.030578       -28.0434
 114   2.0000      -1.024416       -27.8758
 115   2.0000      -1.020977       -27.7822
 116   2.0000      -0.996049       -27.1039
 117   2.0000      -0.995508       -27.0891
 118   2.0000      -0.989654       -26.9299
 119   2.0000      -0.980274       -26.6746
 120   2.0000      -0.973166       -26.4812
 121   2.0000      -0.945139       -25.7185
 122   2.0000      -0.943490       -25.6737
 123   2.0000      -0.941465       -25.6186
 124   2.0000      -0.933127       -25.3917
 125   2.0000      -0.928623       -25.2691
 126   2.0000      -0.911963       -24.8158
 127   2.0000      -0.910996       -24.7895
 128   2.0000      -0.906400       -24.6644
 129   2.0000      -0.896163       -24.3858
 130   2.0000      -0.893169       -24.3044
 131   2.0000      -0.884811       -24.0769
 132   2.0000      -0.884618       -24.0717
 133   2.0000      -0.882380       -24.0108
 134   2.0000      -0.881465       -23.9859
 135   2.0000      -0.878648       -23.9092
 136   2.0000      -0.877487       -23.8776
 137   2.0000      -0.860941       -23.4274
 138   2.0000      -0.847859       -23.0714
 139   2.0000      -0.836843       -22.7716
 140   2.0000      -0.812708       -22.1149
 141   2.0000      -0.811072       -22.0704
 142   2.0000      -0.810484       -22.0544
 143   2.0000      -0.806907       -21.9570
 144   2.0000      -0.806175       -21.9371
 145   2.0000      -0.799898       -21.7663
 146   2.0000      -0.790088       -21.4994
 147   2.0000      -0.783497       -21.3200
 148   2.0000      -0.766019       -20.8444
 149   2.0000      -0.758612       -20.6429
 150   2.0000      -0.745415       -20.2838
 151   2.0000      -0.744500       -20.2589
 152   2.0000      -0.740311       -20.1449
 153   2.0000      -0.739012       -20.1095
 154   2.0000      -0.738020       -20.0825
 155   2.0000      -0.733592       -19.9621
 156   2.0000      -0.728263       -19.8170
 157   2.0000      -0.725820       -19.7506
 158   2.0000      -0.718018       -19.5383
 159   2.0000      -0.712121       -19.3778
 160   2.0000      -0.700992       -19.0750
 161   2.0000      -0.698449       -19.0058
 162   2.0000      -0.695142       -18.9158
 163   2.0000      -0.690314       -18.7844
 164   2.0000      -0.686999       -18.6942
 165   2.0000      -0.678899       -18.4738
 166   2.0000      -0.678191       -18.4545
 167   2.0000      -0.677721       -18.4417
 168   2.0000      -0.673553       -18.3283
 169   2.0000      -0.672861       -18.3095
 170   2.0000      -0.668511       -18.1911
 171   2.0000      -0.668083       -18.1795
 172   2.0000      -0.661795       -18.0084
 173   2.0000      -0.656354       -17.8603
 174   2.0000      -0.650747       -17.7077
 175   2.0000      -0.649039       -17.6612
 176   2.0000      -0.646364       -17.5884
 177   2.0000      -0.633851       -17.2480
 178   2.0000      -0.632192       -17.2028
 179   2.0000      -0.629351       -17.1255
 180   2.0000      -0.628143       -17.0927
 181   2.0000      -0.625581       -17.0229
 182   2.0000      -0.622701       -16.9445
 183   2.0000      -0.621608       -16.9148
 184   2.0000      -0.620630       -16.8882
 185   2.0000      -0.611118       -16.6294
 186   2.0000      -0.601099       -16.3567
 187   2.0000      -0.597477       -16.2582
 188   2.0000      -0.594459       -16.1760
 189   2.0000      -0.591920       -16.1070
 190   2.0000      -0.589840       -16.0503
 191   2.0000      -0.588362       -16.0101
 192   2.0000      -0.585859       -15.9420
 193   2.0000      -0.585069       -15.9205
 194   2.0000      -0.584423       -15.9030
 195   2.0000      -0.581694       -15.8287
 196   2.0000      -0.580763       -15.8034
 197   2.0000      -0.580557       -15.7978
 198   2.0000      -0.579393       -15.7661
 199   2.0000      -0.577911       -15.7258
 200   2.0000      -0.575420       -15.6580
 201   2.0000      -0.574688       -15.6381
 202   2.0000      -0.570380       -15.5208
 203   2.0000      -0.569884       -15.5073
 204   2.0000      -0.566812       -15.4237
 205   2.0000      -0.563735       -15.3400
 206   2.0000      -0.562693       -15.3117
 207   2.0000      -0.560363       -15.2483
 208   2.0000      -0.557124       -15.1601
 209   2.0000      -0.556597       -15.1458
 210   2.0000      -0.547429       -14.8963
 211   2.0000      -0.544605       -14.8195
 212   2.0000      -0.543522       -14.7900
 213   2.0000      -0.541329       -14.7303
 214   2.0000      -0.537594       -14.6287
 215   2.0000      -0.535775       -14.5792
 216   2.0000      -0.533329       -14.5126
 217   2.0000      -0.532409       -14.4876
 218   2.0000      -0.528665       -14.3857
 219   2.0000      -0.528104       -14.3704
 220   2.0000      -0.527157       -14.3447
 221   2.0000      -0.524128       -14.2623
 222   2.0000      -0.522132       -14.2079
 223   2.0000      -0.520327       -14.1588
 224   2.0000      -0.520012       -14.1503
 225   2.0000      -0.517761       -14.0890
 226   2.0000      -0.515829       -14.0364
 227   2.0000      -0.514296       -13.9947
 228   2.0000      -0.510891       -13.9021
 229   2.0000      -0.508617       -13.8402
 230   2.0000      -0.505948       -13.7675
 231   2.0000      -0.503546       -13.7022
 232   2.0000      -0.500912       -13.6305
 233   2.0000      -0.495148       -13.4736
 234   2.0000      -0.491641       -13.3782
 235   2.0000      -0.490018       -13.3341
 236   2.0000      -0.489553       -13.3214
 237   2.0000      -0.488165       -13.2836
 238   2.0000      -0.487872       -13.2757
 239   2.0000      -0.487476       -13.2649
 240   2.0000      -0.486173       -13.2294
 241   2.0000      -0.484466       -13.1830
 242   2.0000      -0.484278       -13.1779
 243   2.0000      -0.479749       -13.0546
 244   2.0000      -0.477883       -13.0038
 245   2.0000      -0.476840       -12.9755
 246   2.0000      -0.476450       -12.9649
 247   2.0000      -0.476011       -12.9529
 248   2.0000      -0.473630       -12.8881
 249   2.0000      -0.470481       -12.8024
 250   2.0000      -0.468903       -12.7595
 251   2.0000      -0.466900       -12.7050
 252   2.0000      -0.464679       -12.6446
 253   2.0000      -0.461795       -12.5661
 254   2.0000      -0.461357       -12.5542
 255   2.0000      -0.458124       -12.4662
 256   2.0000      -0.456685       -12.4270
 257   2.0000      -0.452904       -12.3241
 258   2.0000      -0.451339       -12.2816
 259   2.0000      -0.450361       -12.2550
 260   2.0000      -0.447976       -12.1900
 261   2.0000      -0.443533       -12.0692
 262   2.0000      -0.441994       -12.0273
 263   2.0000      -0.441261       -12.0073
 264   2.0000      -0.439427       -11.9574
 265   2.0000      -0.438562       -11.9339
 266   2.0000      -0.436416       -11.8755
 267   2.0000      -0.433577       -11.7982
 268   2.0000      -0.428115       -11.6496
 269   2.0000      -0.427441       -11.6312
 270   2.0000      -0.416852       -11.3431
 271   2.0000      -0.415005       -11.2929
 272   2.0000      -0.413669       -11.2565
 273   2.0000      -0.390416       -10.6238
 274   2.0000      -0.383477       -10.4349
 275   2.0000      -0.378777       -10.3070
 276   2.0000      -0.370479       -10.0812
 277   2.0000      -0.369987       -10.0679
 278   2.0000      -0.369416       -10.0523
 279   2.0000      -0.368216       -10.0197
 280   2.0000      -0.367488        -9.9998
 281   2.0000      -0.364591        -9.9210
 282   2.0000      -0.360683        -9.8147
 283   2.0000      -0.357599        -9.7308
 284   2.0000      -0.347338        -9.4515
 285   2.0000      -0.343554        -9.3486
 286   2.0000      -0.329101        -8.9553
 287   2.0000      -0.291238        -7.9250
 288   2.0000      -0.267082        -7.2677
 289   0.0000      -0.082706        -2.2505
 290   0.0000      -0.067816        -1.8454
 291   0.0000      -0.046049        -1.2530
 292   0.0000      -0.038263        -1.0412
 293   0.0000      -0.027942        -0.7604

MULLIKEN ATOMIC CHARGES
-----------------------
   0 C :    0.230611
   1 O :   -0.204783
   2 C :   -0.059836
   3 C :   -0.092009
   4 C :    0.239233
   5 C :    0.242923
   6 C :   -0.084227
   7 C :    0.024842
   8 C :    0.288811
   9 C :   -0.382491
  10 C :   -0.128134
  11 N :    0.093683
  12 C :   -0.133830
  13 N :    0.109016
  14 C :   -0.151664
  15 F :   -0.180785
  16 C :    0.001376
  17 F :   -0.185119
  18 C :    0.231389
  19 O :   -0.203570
  20 C :   -0.060328
  21 C :   -0.092048
  22 C :    0.240386
  23 C :    0.243280
  24 C :   -0.084575
  25 C :    0.024846
  26 C :    0.291939
  27 C :   -0.382675
  28 C :   -0.125219
  29 N :    0.090282
  30 C :   -0.131104
  31 N :    0.106693
  32 C :   -0.151068
  33 F :   -0.181497
  34 C :   -0.000238
  35 F :   -0.184155
  36 C :   -0.090324
  37 S :    0.222200
  38 C :   -0.046254
  39 C :    0.028429
  40 C :   -0.063962
  41 C :   -0.080227
  42 C :    0.023522
  43 C :   -0.183404
  44 S :    0.191936
  45 C :   -0.126922
  46 C :   -0.052975
  47 C :    0.034111
  48 C :    0.156539
  49 C :    0.160507
  50 C :    0.075542
  51 C :   -0.050105
  52 C :   -0.002429
  53 N :   -0.108782
  54 N :   -0.072867
  55 N :   -0.094528
  56 C :   -0.117253
  57 S :    0.184456
  58 C :   -0.069140
  59 C :    0.020314
  60 C :   -0.068692
  61 C :   -0.040972
  62 C :    0.023974
  63 C :   -0.187716
  64 S :    0.216601
  65 C :   -0.090832
  66 C :   -0.053743
  67 F :   -0.188641
  68 C :    0.036354
  69 C :   -0.022222
  70 C :    0.016822
  71 C :   -0.020270
  72 C :    0.035039
  73 C :   -0.018712
  74 C :    0.018852
  75 C :   -0.021632
  76 C :    0.100874
  77 C :   -0.067267
  78 F :   -0.187962
  79 H :    0.039022
  80 H :    0.044958
  81 H :    0.029129
  82 H :    0.040765
  83 H :    0.043776
  84 H :    0.027543
  85 H :    0.033486
  86 H :    0.013790
  87 H :    0.025469
  88 H :    0.029916
  89 H :    0.033367
  90 H :    0.026310
  91 H :    0.035463
  92 H :    0.042920
  93 H :    0.030679
  94 H :    0.033756
  95 H :    0.028623
  96 H :    0.038903
  97 H :    0.038448
  98 H :    0.039107
  99 H :    0.033572
 100 H :    0.023539
 101 H :    0.035326
 102 H :    0.041434
 103 H :    0.030136
 104 H :    0.033905
 105 H :    0.025961
 106 H :    0.039990
 107 H :    0.037000
 108 H :    0.040940
 109 H :    0.070082
 110 H :    0.064242
 111 H :    0.062195
 112 H :    0.056878
 113 H :    0.051174
Sum of atomic charges:   -0.0000000

LOEWDIN ATOMIC CHARGES
----------------------
   0 C :    0.090980
   1 O :   -0.172124
   2 C :   -0.049234
   3 C :   -0.008207
   4 C :    0.073201
   5 C :    0.076230
   6 C :   -0.017668
   7 C :   -0.018767
   8 C :    0.081643
   9 C :   -0.153132
  10 C :   -0.014757
  11 N :   -0.059973
  12 C :   -0.015088
  13 N :   -0.056622
  14 C :   -0.137420
  15 F :   -0.048526
  16 C :    0.064655
  17 F :   -0.051095
  18 C :    0.091364
  19 O :   -0.170442
  20 C :   -0.049334
  21 C :   -0.007357
  22 C :    0.073540
  23 C :    0.076432
  24 C :   -0.017708
  25 C :   -0.019140
  26 C :    0.082022
  27 C :   -0.153460
  28 C :   -0.014186
  29 N :   -0.061119
  30 C :   -0.015014
  31 N :   -0.056732
  32 C :   -0.136733
  33 F :   -0.048560
  34 C :    0.064300
  35 F :   -0.050243
  36 C :   -0.195172
  37 S :    0.509510
  38 C :   -0.163780
  39 C :   -0.050242
  40 C :   -0.008629
  41 C :   -0.208773
  42 C :   -0.021772
  43 C :   -0.038573
  44 S :    0.460805
  45 C :   -0.159699
  46 C :   -0.046044
  47 C :   -0.068063
  48 C :    0.064288
  49 C :    0.073170
  50 C :   -0.070850
  51 C :   -0.053328
  52 C :   -0.042774
  53 N :   -0.100789
  54 N :    0.162064
  55 N :   -0.085204
  56 C :   -0.156583
  57 S :    0.478222
  58 C :   -0.207774
  59 C :   -0.024303
  60 C :   -0.051523
  61 C :   -0.165568
  62 C :   -0.047580
  63 C :   -0.038986
  64 S :    0.505428
  65 C :   -0.194326
  66 C :   -0.005326
  67 F :   -0.049562
  68 C :   -0.012195
  69 C :   -0.061403
  70 C :   -0.016873
  71 C :   -0.058218
  72 C :   -0.012509
  73 C :   -0.060541
  74 C :   -0.016774
  75 C :   -0.058126
  76 C :    0.035931
  77 C :   -0.058210
  78 F :   -0.053494
  79 H :    0.054406
  80 H :    0.053822
  81 H :    0.052159
  82 H :    0.055193
  83 H :    0.053613
  84 H :    0.051881
  85 H :    0.040772
  86 H :    0.031051
  87 H :    0.032847
  88 H :    0.042115
  89 H :    0.030278
  90 H :    0.024616
  91 H :    0.025977
  92 H :    0.033177
  93 H :    0.024063
  94 H :    0.024723
  95 H :    0.025901
  96 H :    0.027139
  97 H :    0.029522
  98 H :    0.026514
  99 H :    0.030498
 100 H :    0.023587
 101 H :    0.025966
 102 H :    0.032908
 103 H :    0.024032
 104 H :    0.024748
 105 H :    0.024820
 106 H :    0.027650
 107 H :    0.028937
 108 H :    0.027118
 109 H :    0.043124
 110 H :    0.040679
 111 H :    0.036505
 112 H :    0.038216
 113 H :    0.033867

  Mayer bond orders larger than 0.100000
B(  0-C ,  1-O ) :   2.1227 B(  0-C ,  2-C ) :   0.9662 B(  0-C , 14-C ) :   0.9928
B(  2-C ,  3-C ) :   1.3473 B(  2-C ,  7-C ) :   1.3486 B(  3-C ,  4-C ) :   1.3264
B(  3-C , 79-H ) :   1.0148 B(  4-C ,  5-C ) :   1.2964 B(  4-C , 17-F ) :   1.1000
B(  5-C ,  6-C ) :   1.3470 B(  5-C , 15-F ) :   1.1144 B(  6-C ,  7-C ) :   1.3386
B(  6-C , 80-H ) :   0.9877 B(  7-C ,  8-C ) :   1.0112 B(  8-C ,  9-C ) :   1.6238
B(  8-C , 14-C ) :   1.1158 B(  9-C , 10-C ) :   1.1367 B(  9-C , 12-C ) :   1.1318
B( 10-C , 11-N ) :   2.9520 B( 12-C , 13-N ) :   2.9737 B( 14-C , 16-C ) :   1.4766
B( 16-C , 65-C ) :   1.3340 B( 16-C , 81-H ) :   0.9396 B( 18-C , 19-O ) :   2.1220
B( 18-C , 20-C ) :   0.9679 B( 18-C , 32-C ) :   0.9917 B( 20-C , 21-C ) :   1.3459
B( 20-C , 25-C ) :   1.3455 B( 21-C , 22-C ) :   1.3268 B( 21-C , 82-H ) :   1.0152
B( 22-C , 23-C ) :   1.2959 B( 22-C , 35-F ) :   1.1002 B( 23-C , 24-C ) :   1.3470
B( 23-C , 33-F ) :   1.1123 B( 24-C , 25-C ) :   1.3385 B( 24-C , 83-H ) :   0.9886
B( 25-C , 26-C ) :   1.0119 B( 26-C , 27-C ) :   1.6253 B( 26-C , 32-C ) :   1.1141
B( 27-C , 28-C ) :   1.1355 B( 27-C , 30-C ) :   1.1305 B( 28-C , 29-N ) :   2.9520
B( 30-C , 31-N ) :   2.9729 B( 32-C , 34-C ) :   1.4787 B( 34-C , 36-C ) :   1.3308
B( 34-C , 84-H ) :   0.9396 B( 36-C , 37-S ) :   1.0647 B( 36-C , 40-C ) :   1.3047
B( 37-S , 38-C ) :   1.1137 B( 38-C , 39-C ) :   1.4215 B( 38-C , 41-C ) :   1.2335
B( 39-C , 40-C ) :   1.4146 B( 39-C , 43-C ) :   0.9096 B( 40-C , 85-H ) :   1.0110
B( 41-C , 42-C ) :   1.4972 B( 41-C , 44-S ) :   1.0677 B( 42-C , 43-C ) :   0.9369
B( 42-C , 46-C ) :   1.3157 B( 43-C , 72-C ) :   1.0180 B( 43-C , 74-C ) :   1.0297
B( 44-S , 45-C ) :   1.1198 B( 45-C , 46-C ) :   1.4704 B( 45-C , 47-C ) :   1.1501
B( 46-C , 86-H ) :   0.9924 B( 47-C , 48-C ) :   1.3910 B( 47-C , 50-C ) :   0.1072
B( 47-C , 52-C ) :   1.1922 B( 48-C , 49-C ) :   1.2088 B( 48-C , 78-F ) :   1.1082
B( 49-C , 50-C ) :   1.3947 B( 49-C , 67-F ) :   1.1043 B( 50-C , 51-C ) :   1.1711
B( 50-C , 56-C ) :   1.1341 B( 51-C , 52-C ) :   1.2352 B( 51-C , 53-N ) :   1.4521
B( 52-C , 55-N ) :   1.4615 B( 53-N , 54-N ) :   1.2452 B( 53-N , 55-N ) :   0.1586
B( 54-N , 55-N ) :   1.2402 B( 54-N , 76-C ) :   0.9063 B( 56-C , 57-S ) :   1.1382
B( 56-C , 60-C ) :   1.4549 B( 57-S , 58-C ) :   1.0629 B( 58-C , 59-C ) :   1.4976
B( 58-C , 61-C ) :   1.2286 B( 59-C , 60-C ) :   1.3360 B( 59-C , 63-C ) :   0.9224
B( 60-C , 87-H ) :   0.9975 B( 61-C , 62-C ) :   1.4143 B( 61-C , 64-S ) :   1.1085
B( 62-C , 63-C ) :   0.9225 B( 62-C , 66-C ) :   1.4162 B( 63-C , 68-C ) :   1.0172
B( 63-C , 70-C ) :   1.0305 B( 64-S , 65-C ) :   1.0630 B( 65-C , 66-C ) :   1.2992
B( 66-C , 88-H ) :   1.0164 B( 68-C , 69-C ) :   1.0987 B( 68-C , 89-H ) :   0.9474
B( 68-C , 90-H ) :   0.9450 B( 69-C , 91-H ) :   0.9663 B( 69-C , 92-H ) :   0.9672
B( 69-C , 93-H ) :   0.9676 B( 70-C , 71-C ) :   1.0876 B( 70-C , 94-H ) :   0.9471
B( 70-C , 95-H ) :   0.9491 B( 71-C , 96-H ) :   0.9693 B( 71-C , 97-H ) :   0.9704
B( 71-C , 98-H ) :   0.9677 B( 72-C , 73-C ) :   1.0980 B( 72-C , 99-H ) :   0.9474
B( 72-C ,100-H ) :   0.9446 B( 73-C ,101-H ) :   0.9669 B( 73-C ,102-H ) :   0.9672
B( 73-C ,103-H ) :   0.9677 B( 74-C , 75-C ) :   1.0878 B( 74-C ,104-H ) :   0.9473
B( 74-C ,105-H ) :   0.9490 B( 75-C ,106-H ) :   0.9698 B( 75-C ,107-H ) :   0.9704
B( 75-C ,108-H ) :   0.9670 B( 76-C , 77-C ) :   1.0990 B( 76-C ,109-H ) :   0.9498
B( 76-C ,110-H ) :   0.9492 B( 77-C ,111-H ) :   0.9704 B( 77-C ,112-H ) :   0.9719
B( 77-C ,113-H ) :   0.9691

-----------------------------------------------------------------------------
         ABSORPTION SPECTRUM VIA TRANSITION ELECTRIC DIPOLE MOMENTS
-----------------------------------------------------------------------------
State   Energy  Wavelength   fosc         T2         TX        TY        TZ
        (cm-1)    (nm)                  (au**2)     (au)      (au)      (au)
-----------------------------------------------------------------------------
   0   17498.4    571.5   4.173193954  78.51367  -6.49647   0.82218   5.96939
   1   23997.2    416.7   0.035472393   0.48664  -0.57305   0.08374  -0.38889
   2   28268.2    353.8   0.008306371   0.09674  -0.07039  -0.26024  -0.15510
   3   28790.6    347.3   0.002843287   0.03251   0.13457  -0.11881   0.01692
   4   31422.2    318.2   0.000436149   0.00457   0.05870  -0.03136  -0.01187
   5   32100.0    311.5   0.237928389   2.44015  -0.87080   0.44226   1.21912
   6   34334.9    291.2   0.130679046   1.25299  -0.26446  -0.93154  -0.56150
   7   36100.0    277.0   0.035302005   0.32193   0.41182   0.38987   0.01848
   8   36524.0    273.8   0.209911225   1.89205  -0.50891  -1.16210  -0.53158
   9   37697.2    265.3   0.067760027   0.59175   0.12270   0.61051   0.45163
  10   38110.0    262.4   0.502894648   4.34424   1.21244   1.65205   0.38074
  11   38340.3    260.8   0.002382112   0.02045  -0.07138  -0.11908  -0.03434
  12   39140.7    255.5   0.127680361   1.07392   0.33214   0.82928   0.52526
  13   39625.0    252.4   0.173744736   1.44351  -0.57522  -0.95828  -0.44083
  14   39705.6    251.9   0.897473412   7.44125  -1.19618  -2.29904  -0.85135

Dispersion correction           -0.069072899
FINAL SINGLE POINT ENERGY     -5028.869097996028

DIPOLE MOMENT
-------------
                                X             Y             Z
Electronic contribution:      0.72532      18.50372       7.90688
Nuclear contribution   :     -0.69312     -19.78158      -8.27417
                        -----------------------------------------
Total Dipole Moment    :      0.03220      -1.27786      -0.36729
                        -----------------------------------------
Magnitude (a.u.)       :      1.32999
Magnitude (Debye)      :      3.38056

Rotational constants in cm-1:     0.002115     0.000163     0.000152
Rotational constants in MHz :    63.391768     4.873232     4.571485

                             ****ORCA TERMINATED NORMALLY****
TOTAL RUN TIME: 0 days 0 hours 11 minutes 52 seconds 737 msec
