                         Program Version 4.2.0 -  RELEASE  -
|  1> # ORCA input file
|  2> # SCF done       -184.308933424867          0.000597020151
|  3> ! wb97x-d3 def2-SVP def2/J RIJCOSX Grid4 TightSCF
|  4> %maxcore 5000
|  5> %tddft
|  6>     Mode sTDA
|  7>     Ethresh 5.0
|  8>     maxcore 5000
|  9> end
| 10>
| 11> %pal
| 12>   nprocs 6
| 13>   end
| 14> * xyz 0 1
| 15>    S        0.85969         0.18276        -0.71061
| 16>    N       -0.04750        -1.14345        -0.67482
| 17>    C       -1.28939        -0.81687        -0.32242
| 18>    C       -1.42215         0.59954        -0.08883
| 19>    N       -0.27139         1.24078        -0.28200
| 20>    C       -2.40220        -1.69075        -0.17724
| 21>    C       -3.59650        -1.09308         0.20886
| 22>    C       -3.72126         0.26851         0.44568
| 23>    C       -2.66598         1.16306         0.30884
| 24>    C       -2.81871         2.56241         0.55790
| 25>    C       -2.29851        -3.09628        -0.41637
| 26>    C       -1.16509        -3.82122        -0.74805
| 27>    C       -1.42230        -5.17718        -0.89691
| 28>    C       -2.77088        -5.48925        -0.70616
| 29>    S       -3.71976        -4.11850        -0.30534
| 30>    C       -0.63071        -6.41286        -1.26170
| 31>    C       -1.73052        -7.45213        -1.25694
| 32>    C       -2.96463        -6.86690        -0.92516
| 33>    C       -1.82138        -8.81409        -1.45594
| 34>    C       -3.12282        -9.29433        -1.30951
| 35>    S       -4.24568        -7.99160        -0.89192
| 36>    C       -1.88314         3.56827         0.37550
| 37>    C       -2.37599         4.81950         0.71628
| 38>    C       -3.69390         4.77587         1.17565
| 39>    S       -4.33939         3.18697         1.17335
| 40>    C       -1.84056         6.23167         0.74892
| 41>    C       -3.05700         6.97505         1.24777
| 42>    C       -4.11261         6.08119         1.50196
| 43>    C       -3.39532         8.28842         1.49784
| 44>    C       -4.70128         8.42731         1.96879
| 45>    S       -5.51508         6.85924         2.08019
| 46>    C       -3.68884       -10.56979        -1.45053
| 47>    C       -3.13254       -11.79657        -1.71824
| 48>    C       -3.91741       -13.01256        -1.85101
| 49>    C       -2.98762       -14.13799        -1.93367
| 50>    C       -1.67668       -13.63548        -1.93924
| 51>    C       -1.70489       -12.16322        -1.83829
| 52>    C       -3.19498       -15.50675        -2.00437
| 53>    C       -2.08794       -16.34173        -2.08474
| 54>    C       -0.79622       -15.83574        -2.09733
| 55>    C       -0.57766       -14.46757        -2.02304
| 56>    C       -5.28081       -13.12008        -1.94993
| 57>    O       -0.72573       -11.44215        -1.85052
| 58>    C       -5.96937       -14.34350        -2.09415
| 59>    C       -6.20903       -12.05710        -1.96331
| 60>    N       -6.60158       -15.29504        -2.20911
| 61>    N       -7.03875       -11.26337        -2.00851
| 62>    C        0.40133        -6.78471        -0.17840
| 63>    C       -0.02115        -6.21425        -2.66377
| 64>    C        1.54127        -5.78909        -0.01136
| 65>    C        0.78021        -7.39766        -3.18902
| 66>    C       -1.40240         6.71780        -0.64161
| 67>    C       -2.48499         6.52956        -1.69808
| 68>    C       -0.67826         6.27871         1.76567
| 69>    C       -5.45067         9.53789         2.38314
| 70>    C       -5.16917        10.88212         2.39427
| 71>    C       -6.08984        11.88196         2.90849
| 72>    C       -5.55528        13.19937         2.56733
| 73>    C       -4.30736        13.02831         1.94716
| 74>    C       -3.99387        11.58972         1.84217
| 75>    C       -6.05605        14.47832         2.75413
| 76>    C       -5.29583        15.55749         2.32208
| 77>    C       -4.06004        15.37931         1.71727
| 78>    C       -3.55161        14.10314         1.52201
| 79>    O       -2.96739        11.12878         1.38115
| 80>    C       -7.22622        11.66870         3.64568
| 81>    C       -8.06107        12.69939         4.12754
| 82>    C       -7.72432        10.42073         4.07701
| 83>    N       -8.19468         9.45857         4.49336
| 84>    N       -8.79075        13.48005         4.54766
| 85>    C       -0.08595         7.66120         2.00258
| 86>    H       -4.46798        -1.71932         0.33229
| 87>    H       -4.68487         0.65268         0.74691
| 88>    H       -0.21395        -3.33948        -0.87493
| 89>    H       -1.00637        -9.47393        -1.68852
| 90>    H       -0.89731         3.36147         0.00328
| 91>    H       -2.76177         9.14238         1.34484
| 92>    H       -4.76313       -10.56722        -1.30706
| 93>    H       -4.18531       -15.93090        -1.99343
| 94>    H       -2.24106       -17.40920        -2.13852
| 95>    H        0.04263       -16.51222        -2.16344
| 96>    H        0.41748       -14.04986        -2.02831
| 97>    H       -0.13372        -6.87463         0.77076
| 98>    H        0.80442        -7.76903        -0.41960
| 99>    H       -0.84309        -6.00591        -3.35392
|100>    H        0.61244        -5.32632        -2.63496
|101>    H        1.16403        -4.81007         0.27051
|102>    H        2.20821        -6.13439         0.77560
|103>    H        2.12026        -5.69201        -0.92544
|104>    H        0.16447        -8.28990        -3.25122
|105>    H        1.14637        -7.16890        -4.18759
|106>    H        1.63729        -7.60920        -2.55609
|107>    H       -1.15210         7.77672        -0.57644
|108>    H       -0.50635         6.16759        -0.93547
|109>    H       -3.38795         7.07031        -1.42343
|110>    H       -2.13858         6.90863        -2.65642
|111>    H       -2.73557         5.47765        -1.81612
|112>    H       -1.04692         5.88226         2.71532
|113>    H        0.10333         5.60518         1.40730
|114>    H       -6.43324         9.26489         2.75029
|115>    H       -7.01371        14.64951         3.21715
|116>    H       -5.67970        16.55691         2.46218
|117>    H       -3.49295        16.23985         1.39552
|118>    H       -2.59416        13.93859         1.05188
|119>    H       -0.84007         8.35147         2.36875
|120>    H        0.70109         7.59102         2.75016
|121>    H        0.34856         8.06723         1.09364
|122> *
|123>
|124>                          ****END OF INPUT****

CARTESIAN COORDINATES (ANGSTROEM)
---------------------------------
  S      0.859690    0.182760   -0.710610
  N     -0.047500   -1.143450   -0.674820
  C     -1.289390   -0.816870   -0.322420
  C     -1.422150    0.599540   -0.088830
  N     -0.271390    1.240780   -0.282000
  C     -2.402200   -1.690750   -0.177240
  C     -3.596500   -1.093080    0.208860
  C     -3.721260    0.268510    0.445680
  C     -2.665980    1.163060    0.308840
  C     -2.818710    2.562410    0.557900
  C     -2.298510   -3.096280   -0.416370
  C     -1.165090   -3.821220   -0.748050
  C     -1.422300   -5.177180   -0.896910
  C     -2.770880   -5.489250   -0.706160
  S     -3.719760   -4.118500   -0.305340
  C     -0.630710   -6.412860   -1.261700
  C     -1.730520   -7.452130   -1.256940
  C     -2.964630   -6.866900   -0.925160
  C     -1.821380   -8.814090   -1.455940
  C     -3.122820   -9.294330   -1.309510
  S     -4.245680   -7.991600   -0.891920
  C     -1.883140    3.568270    0.375500
  C     -2.375990    4.819500    0.716280
  C     -3.693900    4.775870    1.175650
  S     -4.339390    3.186970    1.173350
  C     -1.840560    6.231670    0.748920
  C     -3.057000    6.975050    1.247770
  C     -4.112610    6.081190    1.501960
  C     -3.395320    8.288420    1.497840
  C     -4.701280    8.427310    1.968790
  S     -5.515080    6.859240    2.080190
  C     -3.688840  -10.569790   -1.450530
  C     -3.132540  -11.796570   -1.718240
  C     -3.917410  -13.012560   -1.851010
  C     -2.987620  -14.137990   -1.933670
  C     -1.676680  -13.635480   -1.939240
  C     -1.704890  -12.163220   -1.838290
  C     -3.194980  -15.506750   -2.004370
  C     -2.087940  -16.341730   -2.084740
  C     -0.796220  -15.835740   -2.097330
  C     -0.577660  -14.467570   -2.023040
  C     -5.280810  -13.120080   -1.949930
  O     -0.725730  -11.442150   -1.850520
  C     -5.969370  -14.343500   -2.094150
  C     -6.209030  -12.057100   -1.963310
  N     -6.601580  -15.295040   -2.209110
  N     -7.038750  -11.263370   -2.008510
  C      0.401330   -6.784710   -0.178400
  C     -0.021150   -6.214250   -2.663770
  C      1.541270   -5.789090   -0.011360
  C      0.780210   -7.397660   -3.189020
  C     -1.402400    6.717800   -0.641610
  C     -2.484990    6.529560   -1.698080
  C     -0.678260    6.278710    1.765670
  C     -5.450670    9.537890    2.383140
  C     -5.169170   10.882120    2.394270
  C     -6.089840   11.881960    2.908490
  C     -5.555280   13.199370    2.567330
  C     -4.307360   13.028310    1.947160
  C     -3.993870   11.589720    1.842170
  C     -6.056050   14.478320    2.754130
  C     -5.295830   15.557490    2.322080
  C     -4.060040   15.379310    1.717270
  C     -3.551610   14.103140    1.522010
  O     -2.967390   11.128780    1.381150
  C     -7.226220   11.668700    3.645680
  C     -8.061070   12.699390    4.127540
  C     -7.724320   10.420730    4.077010
  N     -8.194680    9.458570    4.493360
  N     -8.790750   13.480050    4.547660
  C     -0.085950    7.661200    2.002580
  H     -4.467980   -1.719320    0.332290
  H     -4.684870    0.652680    0.746910
  H     -0.213950   -3.339480   -0.874930
  H     -1.006370   -9.473930   -1.688520
  H     -0.897310    3.361470    0.003280
  H     -2.761770    9.142380    1.344840
  H     -4.763130  -10.567220   -1.307060
  H     -4.185310  -15.930900   -1.993430
  H     -2.241060  -17.409200   -2.138520
  H      0.042630  -16.512220   -2.163440
  H      0.417480  -14.049860   -2.028310
  H     -0.133720   -6.874630    0.770760
  H      0.804420   -7.769030   -0.419600
  H     -0.843090   -6.005910   -3.353920
  H      0.612440   -5.326320   -2.634960
  H      1.164030   -4.810070    0.270510
  H      2.208210   -6.134390    0.775600
  H      2.120260   -5.692010   -0.925440
  H      0.164470   -8.289900   -3.251220
  H      1.146370   -7.168900   -4.187590
  H      1.637290   -7.609200   -2.556090
  H     -1.152100    7.776720   -0.576440
  H     -0.506350    6.167590   -0.935470
  H     -3.387950    7.070310   -1.423430
  H     -2.138580    6.908630   -2.656420
  H     -2.735570    5.477650   -1.816120
  H     -1.046920    5.882260    2.715320
  H      0.103330    5.605180    1.407300
  H     -6.433240    9.264890    2.750290
  H     -7.013710   14.649510    3.217150
  H     -5.679700   16.556910    2.462180
  H     -3.492950   16.239850    1.395520
  H     -2.594160   13.938590    1.051880
  H     -0.840070    8.351470    2.368750
  H      0.701090    7.591020    2.750160
  H      0.348560    8.067230    1.093640

 Total Charge           Charge          ....    0
 Multiplicity           Mult            ....    1
 Number of Electrons    NEL             ....  522
 Basis Dimension        Dim             .... 1194

ORBITAL ENERGIES
----------------

  NO   OCC          E(Eh)            E(eV)
   0   2.0000     -89.060177     -2423.4506
   1   2.0000     -88.997373     -2421.7416
   2   2.0000     -88.997272     -2421.7389
   3   2.0000     -88.996396     -2421.7151
   4   2.0000     -88.996328     -2421.7132
   5   2.0000     -19.250339      -523.8284
   6   2.0000     -19.250274      -523.8266
   7   2.0000     -14.490034      -394.2939
   8   2.0000     -14.489856      -394.2890
   9   2.0000     -14.444935      -393.0667
  10   2.0000     -14.444851      -393.0644
  11   2.0000     -14.441081      -392.9618
  12   2.0000     -14.441040      -392.9607
  13   2.0000     -10.399048      -282.9725
  14   2.0000     -10.399012      -282.9715
  15   2.0000     -10.371481      -282.2224
  16   2.0000     -10.371401      -282.2202
  17   2.0000     -10.371285      -282.2170
  18   2.0000     -10.371206      -282.2149
  19   2.0000     -10.368220      -282.1336
  20   2.0000     -10.368165      -282.1321
  21   2.0000     -10.359260      -281.8898
  22   2.0000     -10.358905      -281.8801
  23   2.0000     -10.354188      -281.7518
  24   2.0000     -10.354147      -281.7507
  25   2.0000     -10.353766      -281.7403
  26   2.0000     -10.353073      -281.7214
  27   2.0000     -10.347201      -281.5617
  28   2.0000     -10.347017      -281.5566
  29   2.0000     -10.346940      -281.5546
  30   2.0000     -10.346809      -281.5510
  31   2.0000     -10.346744      -281.5492
  32   2.0000     -10.346598      -281.5452
  33   2.0000     -10.346363      -281.5388
  34   2.0000     -10.346214      -281.5348
  35   2.0000     -10.343053      -281.4488
  36   2.0000     -10.343049      -281.4487
  37   2.0000     -10.333933      -281.2006
  38   2.0000     -10.333831      -281.1978
  39   2.0000     -10.333619      -281.1921
  40   2.0000     -10.333179      -281.1801
  41   2.0000     -10.332654      -281.1658
  42   2.0000     -10.331475      -281.1337
  43   2.0000     -10.324644      -280.9478
  44   2.0000     -10.324578      -280.9461
  45   2.0000     -10.323334      -280.9122
  46   2.0000     -10.323298      -280.9112
  47   2.0000     -10.322922      -280.9010
  48   2.0000     -10.322918      -280.9009
  49   2.0000     -10.322735      -280.8959
  50   2.0000     -10.322613      -280.8926
  51   2.0000     -10.322055      -280.8774
  52   2.0000     -10.322034      -280.8768
  53   2.0000     -10.320684      -280.8401
  54   2.0000     -10.320583      -280.8373
  55   2.0000     -10.320401      -280.8324
  56   2.0000     -10.320074      -280.8235
  57   2.0000     -10.319312      -280.8028
  58   2.0000     -10.319269      -280.8016
  59   2.0000     -10.317199      -280.7452
  60   2.0000     -10.317181      -280.7448
  61   2.0000     -10.315178      -280.6903
  62   2.0000     -10.315144      -280.6893
  63   2.0000     -10.306070      -280.4424
  64   2.0000     -10.306049      -280.4418
  65   2.0000     -10.305903      -280.4379
  66   2.0000     -10.305342      -280.4226
  67   2.0000     -10.291967      -280.0587
  68   2.0000     -10.289623      -279.9949
  69   2.0000     -10.288214      -279.9565
  70   2.0000     -10.285974      -279.8956
  71   2.0000      -8.170816      -222.3392
  72   2.0000      -8.110985      -220.7111
  73   2.0000      -8.110783      -220.7056
  74   2.0000      -8.109755      -220.6776
  75   2.0000      -8.109663      -220.6752
  76   2.0000      -6.132361      -166.8700
  77   2.0000      -6.124309      -166.6509
  78   2.0000      -6.123295      -166.6233
  79   2.0000      -6.070318      -165.1818
  80   2.0000      -6.070172      -165.1778
  81   2.0000      -6.069323      -165.1547
  82   2.0000      -6.069226      -165.1520
  83   2.0000      -6.066345      -165.0736
  84   2.0000      -6.066136      -165.0680
  85   2.0000      -6.065220      -165.0430
  86   2.0000      -6.065139      -165.0408
  87   2.0000      -6.063414      -164.9939
  88   2.0000      -6.063210      -164.9883
  89   2.0000      -6.061968      -164.9545
  90   2.0000      -6.061875      -164.9520
  91   2.0000      -1.175876       -31.9972
  92   2.0000      -1.166544       -31.7433
  93   2.0000      -1.166512       -31.7424
  94   2.0000      -1.061665       -28.8894
  95   2.0000      -1.061552       -28.8863
  96   2.0000      -1.050373       -28.5821
  97   2.0000      -1.050315       -28.5805
  98   2.0000      -1.035164       -28.1683
  99   2.0000      -1.030766       -28.0486
 100   2.0000      -1.029219       -28.0065
 101   2.0000      -1.028786       -27.9947
 102   2.0000      -1.023860       -27.8607
 103   2.0000      -1.023671       -27.8555
 104   2.0000      -1.019139       -27.7322
 105   2.0000      -1.007146       -27.4058
 106   2.0000      -0.983886       -26.7729
 107   2.0000      -0.981939       -26.7199
 108   2.0000      -0.974582       -26.5197
 109   2.0000      -0.969663       -26.3859
 110   2.0000      -0.938137       -25.5280
 111   2.0000      -0.936258       -25.4769
 112   2.0000      -0.931677       -25.3522
 113   2.0000      -0.926177       -25.2026
 114   2.0000      -0.919422       -25.0187
 115   2.0000      -0.912285       -24.8245
 116   2.0000      -0.900413       -24.5015
 117   2.0000      -0.892257       -24.2796
 118   2.0000      -0.891732       -24.2653
 119   2.0000      -0.886687       -24.1280
 120   2.0000      -0.880800       -23.9678
 121   2.0000      -0.879822       -23.9412
 122   2.0000      -0.878440       -23.9036
 123   2.0000      -0.877928       -23.8896
 124   2.0000      -0.875019       -23.8105
 125   2.0000      -0.873580       -23.7713
 126   2.0000      -0.849374       -23.1126
 127   2.0000      -0.838862       -22.8266
 128   2.0000      -0.821068       -22.3424
 129   2.0000      -0.804650       -21.8956
 130   2.0000      -0.802092       -21.8260
 131   2.0000      -0.798935       -21.7401
 132   2.0000      -0.798399       -21.7255
 133   2.0000      -0.786901       -21.4127
 134   2.0000      -0.783365       -21.3164
 135   2.0000      -0.760612       -20.6973
 136   2.0000      -0.757908       -20.6237
 137   2.0000      -0.748496       -20.3676
 138   2.0000      -0.745317       -20.2811
 139   2.0000      -0.735009       -20.0006
 140   2.0000      -0.728937       -19.8354
 141   2.0000      -0.727388       -19.7932
 142   2.0000      -0.725786       -19.7496
 143   2.0000      -0.717493       -19.5240
 144   2.0000      -0.715399       -19.4670
 145   2.0000      -0.711740       -19.3674
 146   2.0000      -0.708981       -19.2923
 147   2.0000      -0.694694       -18.9036
 148   2.0000      -0.682123       -18.5615
 149   2.0000      -0.678748       -18.4697
 150   2.0000      -0.675664       -18.3857
 151   2.0000      -0.666892       -18.1471
 152   2.0000      -0.665555       -18.1107
 153   2.0000      -0.663257       -18.0482
 154   2.0000      -0.662865       -18.0375
 155   2.0000      -0.650491       -17.7008
 156   2.0000      -0.643745       -17.5172
 157   2.0000      -0.642211       -17.4754
 158   2.0000      -0.641223       -17.4486
 159   2.0000      -0.639839       -17.4109
 160   2.0000      -0.623144       -16.9566
 161   2.0000      -0.614441       -16.7198
 162   2.0000      -0.611366       -16.6361
 163   2.0000      -0.606104       -16.4929
 164   2.0000      -0.602155       -16.3855
 165   2.0000      -0.598905       -16.2970
 166   2.0000      -0.596155       -16.2222
 167   2.0000      -0.593301       -16.1445
 168   2.0000      -0.588691       -16.0191
 169   2.0000      -0.586597       -15.9621
 170   2.0000      -0.582475       -15.8500
 171   2.0000      -0.579229       -15.7616
 172   2.0000      -0.573452       -15.6044
 173   2.0000      -0.571192       -15.5429
 174   2.0000      -0.569518       -15.4974
 175   2.0000      -0.569040       -15.4844
 176   2.0000      -0.566868       -15.4253
 177   2.0000      -0.566132       -15.4052
 178   2.0000      -0.563551       -15.3350
 179   2.0000      -0.559856       -15.2344
 180   2.0000      -0.558358       -15.1937
 181   2.0000      -0.556818       -15.1518
 182   2.0000      -0.552728       -15.0405
 183   2.0000      -0.551647       -15.0111
 184   2.0000      -0.543849       -14.7989
 185   2.0000      -0.543155       -14.7800
 186   2.0000      -0.539612       -14.6836
 187   2.0000      -0.534511       -14.5448
 188   2.0000      -0.531575       -14.4649
 189   2.0000      -0.529956       -14.4208
 190   2.0000      -0.526503       -14.3269
 191   2.0000      -0.525924       -14.3111
 192   2.0000      -0.524113       -14.2618
 193   2.0000      -0.521718       -14.1967
 194   2.0000      -0.520964       -14.1761
 195   2.0000      -0.518153       -14.0997
 196   2.0000      -0.516622       -14.0580
 197   2.0000      -0.514469       -13.9994
 198   2.0000      -0.512976       -13.9588
 199   2.0000      -0.512505       -13.9460
 200   2.0000      -0.509060       -13.8522
 201   2.0000      -0.508399       -13.8343
 202   2.0000      -0.502141       -13.6639
 203   2.0000      -0.495471       -13.4824
 204   2.0000      -0.494529       -13.4568
 205   2.0000      -0.492783       -13.4093
 206   2.0000      -0.489373       -13.3165
 207   2.0000      -0.485956       -13.2235
 208   2.0000      -0.484748       -13.1907
 209   2.0000      -0.484425       -13.1819
 210   2.0000      -0.482110       -13.1189
 211   2.0000      -0.480687       -13.0801
 212   2.0000      -0.479443       -13.0463
 213   2.0000      -0.477787       -13.0012
 214   2.0000      -0.477402       -12.9908
 215   2.0000      -0.476291       -12.9605
 216   2.0000      -0.476154       -12.9568
 217   2.0000      -0.473109       -12.8739
 218   2.0000      -0.472243       -12.8504
 219   2.0000      -0.470710       -12.8087
 220   2.0000      -0.470098       -12.7920
 221   2.0000      -0.468638       -12.7523
 222   2.0000      -0.466318       -12.6892
 223   2.0000      -0.463550       -12.6138
 224   2.0000      -0.460493       -12.5306
 225   2.0000      -0.457075       -12.4377
 226   2.0000      -0.454883       -12.3780
 227   2.0000      -0.454786       -12.3754
 228   2.0000      -0.452900       -12.3240
 229   2.0000      -0.448140       -12.1945
 230   2.0000      -0.447884       -12.1875
 231   2.0000      -0.447597       -12.1797
 232   2.0000      -0.446939       -12.1618
 233   2.0000      -0.438079       -11.9207
 234   2.0000      -0.435643       -11.8544
 235   2.0000      -0.434672       -11.8280
 236   2.0000      -0.433458       -11.7950
 237   2.0000      -0.433352       -11.7921
 238   2.0000      -0.431373       -11.7383
 239   2.0000      -0.430571       -11.7164
 240   2.0000      -0.424689       -11.5564
 241   2.0000      -0.423830       -11.5330
 242   2.0000      -0.417933       -11.3725
 243   2.0000      -0.413632       -11.2555
 244   2.0000      -0.410535       -11.1712
 245   2.0000      -0.386962       -10.5298
 246   2.0000      -0.380514       -10.3543
 247   2.0000      -0.372321       -10.1314
 248   2.0000      -0.371254       -10.1023
 249   2.0000      -0.367915       -10.0115
 250   2.0000      -0.367636       -10.0039
 251   2.0000      -0.367485        -9.9998
 252   2.0000      -0.366596        -9.9756
 253   2.0000      -0.364238        -9.9114
 254   2.0000      -0.360031        -9.7969
 255   2.0000      -0.357724        -9.7342
 256   2.0000      -0.346641        -9.4326
 257   2.0000      -0.339225        -9.2308
 258   2.0000      -0.324137        -8.8202
 259   2.0000      -0.289157        -7.8684
 260   2.0000      -0.263698        -7.1756
 261   0.0000      -0.081348        -2.2136
 262   0.0000      -0.062157        -1.6914
 263   0.0000      -0.047782        -1.3002
 264   0.0000      -0.032421        -0.8822
 265   0.0000      -0.030369        -0.8264

MULLIKEN ATOMIC CHARGES
-----------------------
   0 S :    0.536055
   1 N :   -0.325002
   2 C :    0.035200
   3 C :    0.034140
   4 N :   -0.326709
   5 C :    0.098596
   6 C :   -0.062722
   7 C :   -0.060580
   8 C :    0.095686
   9 C :   -0.115339
  10 C :   -0.114930
  11 C :   -0.044465
  12 C :    0.035213
  13 C :   -0.080238
  14 S :    0.140210
  15 C :   -0.181701
  16 C :   -0.004345
  17 C :   -0.062413
  18 C :   -0.000186
  19 C :   -0.159250
  20 S :    0.178835
  21 C :   -0.034634
  22 C :    0.018277
  23 C :   -0.072927
  24 S :    0.139357
  25 C :   -0.191613
  26 C :   -0.017052
  27 C :   -0.054154
  28 C :   -0.001223
  29 C :   -0.159850
  30 S :    0.178833
  31 C :    0.063003
  32 C :   -0.137853
  33 C :    0.275401
  34 C :    0.008484
  35 C :   -0.060747
  36 C :    0.224924
  37 C :   -0.028939
  38 C :    0.011087
  39 C :    0.011542
  40 C :   -0.023977
  41 C :   -0.378947
  42 O :   -0.193830
  43 C :   -0.131515
  44 C :   -0.133635
  45 N :    0.100196
  46 N :    0.105793
  47 C :    0.012318
  48 C :    0.013225
  49 C :   -0.012413
  50 C :   -0.012639
  51 C :    0.012540
  52 C :   -0.018863
  53 C :    0.032993
  54 C :    0.065137
  55 C :   -0.141681
  56 C :    0.280645
  57 C :    0.008801
  58 C :   -0.062926
  59 C :    0.227237
  60 C :   -0.030306
  61 C :    0.012606
  62 C :    0.013579
  63 C :   -0.025358
  64 O :   -0.193883
  65 C :   -0.382697
  66 C :   -0.130555
  67 C :   -0.133745
  68 N :    0.107413
  69 N :    0.099937
  70 C :   -0.017322
  71 H :    0.024692
  72 H :    0.024630
  73 H :    0.025611
  74 H :    0.042255
  75 H :    0.019821
  76 H :    0.040724
  77 H :    0.026536
  78 H :    0.029492
  79 H :    0.030535
  80 H :    0.029241
  81 H :    0.021391
  82 H :    0.032939
  83 H :    0.037788
  84 H :    0.034162
  85 H :    0.030353
  86 H :    0.032397
  87 H :    0.040553
  88 H :    0.026357
  89 H :    0.039632
  90 H :    0.038817
  91 H :    0.028340
  92 H :    0.043759
  93 H :    0.026920
  94 H :    0.039371
  95 H :    0.035288
  96 H :    0.039817
  97 H :    0.031901
  98 H :    0.025314
  99 H :    0.026095
 100 H :    0.029826
 101 H :    0.029019
 102 H :    0.028198
 103 H :    0.021642
 104 H :    0.039168
 105 H :    0.040301
 106 H :    0.031011
Sum of atomic charges:   -0.0000000

LOEWDIN ATOMIC CHARGES
----------------------
   0 S :    0.641227
   1 N :   -0.280048
   2 C :   -0.034515
   3 C :   -0.034508
   4 N :   -0.280186
   5 C :   -0.044232
   6 C :   -0.017069
   7 C :   -0.016371
   8 C :   -0.045422
   9 C :   -0.151214
  10 C :   -0.153417
  11 C :   -0.045439
  12 C :   -0.021481
  13 C :   -0.200270
  14 S :    0.436853
  15 C :   -0.036455
  16 C :   -0.044750
  17 C :   -0.162713
  18 C :   -0.001819
  19 C :   -0.187671
  20 S :    0.456099
  21 C :   -0.043612
  22 C :   -0.021173
  23 C :   -0.202738
  24 S :    0.436401
  25 C :   -0.038091
  26 C :   -0.047060
  27 C :   -0.161689
  28 C :   -0.002771
  29 C :   -0.187891
  30 S :    0.456868
  31 C :    0.054021
  32 C :   -0.121004
  33 C :    0.081531
  34 C :   -0.018687
  35 C :   -0.048377
  36 C :    0.097364
  37 C :    0.001187
  38 C :   -0.003317
  39 C :   -0.006682
  40 C :    0.010492
  41 C :   -0.152481
  42 O :   -0.154842
  43 C :   -0.012843
  44 C :   -0.019464
  45 N :   -0.060741
  46 N :   -0.057570
  47 C :   -0.015092
  48 C :   -0.015896
  49 C :   -0.060195
  50 C :   -0.059052
  51 C :   -0.016306
  52 C :   -0.057858
  53 C :   -0.011816
  54 C :    0.053853
  55 C :   -0.121131
  56 C :    0.081711
  57 C :   -0.018731
  58 C :   -0.048364
  59 C :    0.097252
  60 C :    0.001118
  61 C :   -0.003094
  62 C :   -0.006543
  63 C :    0.010454
  64 O :   -0.154725
  65 C :   -0.152644
  66 C :   -0.012874
  67 C :   -0.019612
  68 N :   -0.057542
  69 N :   -0.060726
  70 C :   -0.060147
  71 H :    0.030390
  72 H :    0.030374
  73 H :    0.031060
  74 H :    0.034489
  75 H :    0.033133
  76 H :    0.034942
  77 H :    0.043967
  78 H :    0.041622
  79 H :    0.038886
  80 H :    0.036929
  81 H :    0.041060
  82 H :    0.031570
  83 H :    0.026414
  84 H :    0.031803
  85 H :    0.023338
  86 H :    0.026350
  87 H :    0.032576
  88 H :    0.023005
  89 H :    0.029316
  90 H :    0.032177
  91 H :    0.023775
  92 H :    0.028140
  93 H :    0.025049
  94 H :    0.027622
  95 H :    0.028613
  96 H :    0.026374
  97 H :    0.029963
  98 H :    0.024124
  99 H :    0.043938
 100 H :    0.041689
 101 H :    0.038592
 102 H :    0.036811
 103 H :    0.041144
 104 H :    0.028628
 105 H :    0.032055
 106 H :    0.024608

  Mayer bond orders larger than 0.100000
B(  0-S ,  1-N ) :   1.2670 B(  0-S ,  4-N ) :   1.2670 B(  1-N ,  2-C ) :   1.5168
B(  1-N ,  4-N ) :   0.1467 B(  2-C ,  3-C ) :   1.1545 B(  2-C ,  5-C ) :   1.1957
B(  3-C ,  4-N ) :   1.5162 B(  3-C ,  8-C ) :   1.1957 B(  5-C ,  6-C ) :   1.4554
B(  5-C ,  8-C ) :   0.1051 B(  5-C , 10-C ) :   1.1293 B(  6-C ,  7-C ) :   1.2831
B(  6-C , 71-H ) :   0.9850 B(  7-C ,  8-C ) :   1.4584 B(  7-C , 72-H ) :   0.9838
B(  8-C ,  9-C ) :   1.1274 B(  9-C , 21-C ) :   1.4882 B(  9-C , 24-S ) :   1.1127
B( 10-C , 11-C ) :   1.4919 B( 10-C , 14-S ) :   1.1107 B( 11-C , 12-C ) :   1.2995
B( 11-C , 73-H ) :   0.9828 B( 12-C , 13-C ) :   1.5213 B( 12-C , 15-C ) :   0.9435
B( 13-C , 14-S ) :   1.0833 B( 13-C , 17-C ) :   1.2205 B( 15-C , 16-C ) :   0.9367
B( 15-C , 47-C ) :   1.0005 B( 15-C , 48-C ) :   1.0029 B( 16-C , 17-C ) :   1.4573
B( 16-C , 18-C ) :   1.3784 B( 17-C , 20-S ) :   1.1417 B( 18-C , 19-C ) :   1.3782
B( 18-C , 74-H ) :   0.9677 B( 19-C , 20-S ) :   1.0754 B( 19-C , 31-C ) :   1.2683
B( 21-C , 22-C ) :   1.2983 B( 21-C , 75-H ) :   0.9939 B( 22-C , 23-C ) :   1.5125
B( 22-C , 25-C ) :   0.9398 B( 23-C , 24-S ) :   1.0826 B( 23-C , 27-C ) :   1.2170
B( 25-C , 26-C ) :   0.9190 B( 25-C , 51-C ) :   1.0265 B( 25-C , 53-C ) :   1.0167
B( 26-C , 27-C ) :   1.4516 B( 26-C , 28-C ) :   1.3745 B( 27-C , 30-S ) :   1.1441
B( 28-C , 29-C ) :   1.3758 B( 28-C , 76-H ) :   0.9712 B( 29-C , 30-S ) :   1.0768
B( 29-C , 54-C ) :   1.2696 B( 31-C , 32-C ) :   1.5833 B( 31-C , 77-H ) :   0.9124
B( 32-C , 33-C ) :   1.1018 B( 32-C , 36-C ) :   0.9537 B( 33-C , 34-C ) :   0.9974
B( 33-C , 41-C ) :   1.6284 B( 34-C , 35-C ) :   1.3364 B( 34-C , 37-C ) :   1.3932
B( 35-C , 36-C ) :   0.9653 B( 35-C , 40-C ) :   1.4044 B( 36-C , 42-O ) :   2.1286
B( 37-C , 38-C ) :   1.3846 B( 37-C , 78-H ) :   0.9842 B( 38-C , 39-C ) :   1.3893
B( 38-C , 79-H ) :   0.9863 B( 39-C , 40-C ) :   1.3573 B( 39-C , 80-H ) :   0.9907
B( 40-C , 81-H ) :   1.0054 B( 41-C , 43-C ) :   1.1344 B( 41-C , 44-C ) :   1.1266
B( 43-C , 45-N ) :   2.9708 B( 44-C , 46-N ) :   2.9710 B( 47-C , 49-C ) :   1.0987
B( 47-C , 82-H ) :   0.9459 B( 47-C , 83-H ) :   0.9472 B( 48-C , 50-C ) :   1.0967
B( 48-C , 84-H ) :   0.9456 B( 48-C , 85-H ) :   0.9468 B( 49-C , 86-H ) :   0.9663
B( 49-C , 87-H ) :   0.9674 B( 49-C , 88-H ) :   0.9647 B( 50-C , 89-H ) :   0.9671
B( 50-C , 90-H ) :   0.9671 B( 50-C , 91-H ) :   0.9647 B( 51-C , 52-C ) :   1.0887
B( 51-C , 92-H ) :   0.9468 B( 51-C , 93-H ) :   0.9491 B( 52-C , 94-H ) :   0.9700
B( 52-C , 95-H ) :   0.9706 B( 52-C , 96-H ) :   0.9662 B( 53-C , 70-C ) :   1.0984
B( 53-C , 97-H ) :   0.9475 B( 53-C , 98-H ) :   0.9447 B( 54-C , 55-C ) :   1.5837
B( 54-C , 99-H ) :   0.9115 B( 55-C , 56-C ) :   1.1005 B( 55-C , 59-C ) :   0.9548
B( 56-C , 57-C ) :   0.9978 B( 56-C , 65-C ) :   1.6284 B( 57-C , 58-C ) :   1.3348
B( 57-C , 60-C ) :   1.3929 B( 58-C , 59-C ) :   0.9623 B( 58-C , 63-C ) :   1.4093
B( 59-C , 64-O ) :   2.1285 B( 60-C , 61-C ) :   1.3861 B( 60-C ,100-H ) :   0.9827
B( 61-C , 62-C ) :   1.3888 B( 61-C ,101-H ) :   0.9862 B( 62-C , 63-C ) :   1.3562
B( 62-C ,102-H ) :   0.9911 B( 63-C ,103-H ) :   1.0035 B( 65-C , 66-C ) :   1.1345
B( 65-C , 67-C ) :   1.1270 B( 66-C , 69-N ) :   2.9710 B( 67-C , 68-N ) :   2.9723
B( 70-C ,104-H ) :   0.9671 B( 70-C ,105-H ) :   0.9665 B( 70-C ,106-H ) :   0.9665

-----------------------------------------------------------------------------
         ABSORPTION SPECTRUM VIA TRANSITION ELECTRIC DIPOLE MOMENTS
-----------------------------------------------------------------------------
State   Energy  Wavelength   fosc         T2         TX        TY        TZ
        (cm-1)    (nm)                  (au**2)     (au)      (au)      (au)
-----------------------------------------------------------------------------
   0   16531.5    604.9   3.497205912  69.64396  -0.70231   8.15968   1.60323
   1   23966.7    417.2   0.510382828   7.01072  -2.57501  -0.32952   0.52103
   2   27701.9    361.0   0.425475169   5.05638   0.09485  -2.13833  -0.68916
   3   29440.8    339.7   0.007919280   0.08855   0.15297   0.25498  -0.01179
   4   30124.4    332.0   0.121247809   1.32504  -0.17387   1.12680   0.15852
   5   30707.1    325.7   0.001532598   0.01643  -0.03105  -0.12287  -0.01922
   6   33232.5    300.9   0.070683159   0.70021  -0.20880   0.69420  -0.41797
   7   35736.9    279.8   0.204123530   1.88041  -1.30710  -0.16882   0.37867
   8   37212.0    268.7   0.266334420   2.35624   0.32150  -1.46473   0.32780
   9   37869.8    264.1   0.060286866   0.52409  -0.08377   0.71469  -0.07936
  10   38730.4    258.2   0.197909505   1.68225   0.07706  -1.29378   0.04932
  11   38816.5    257.6   0.063736226   0.54056   0.33183  -0.65274  -0.06617
  12   39356.5    254.1   0.432042921   3.61398  -1.83135  -0.24545   0.44711
  13   39560.1    252.8   0.420063302   3.49569  -1.79940  -0.15296   0.48422
  14   39965.1    250.2   0.320897167   2.64338   0.27903  -1.34302   0.87282

Dispersion correction           -0.065451429
FINAL SINGLE POINT ENERGY     -4698.297301800944

DIPOLE MOMENT
-------------
                                X             Y             Z
Electronic contribution:    -53.76435      -8.58892      14.47837
Nuclear contribution   :     58.86829       9.21571     -15.74083
                        -----------------------------------------
Total Dipole Moment    :      5.10395       0.62678      -1.26246
                        -----------------------------------------
Magnitude (a.u.)       :      5.29499
Magnitude (Debye)      :     13.45880

Rotational constants in cm-1:     0.002942     0.000182     0.000173
Rotational constants in MHz :    88.194391     5.465642     5.200906

                             ****ORCA TERMINATED NORMALLY****
TOTAL RUN TIME: 0 days 0 hours 11 minutes 13 seconds 65 msec
