                         Program Version 4.2.0 -  RELEASE  -
|  1> # ORCA input file
|  2> # SCF done       -200.517175785840          0.000423444391
|  3> ! wb97x-d3 def2-SVP def2/J RIJCOSX Grid4 TightSCF
|  4> %maxcore 5000
|  5> %tddft
|  6>     Mode sTDA
|  7>     Ethresh 5.0
|  8>     maxcore 5000
|  9> end
| 10>
| 11> %pal
| 12>   nprocs 6
| 13>   end
| 14> * xyz 0 1
| 15>    S        1.80686         0.49511         0.63429
| 16>    N        1.11688        -0.94466         0.45799
| 17>    C       -0.18759        -0.78157         0.25849
| 18>    C       -0.56549         0.60540         0.26243
| 19>    N        0.48622         1.39775         0.46606
| 20>    C       -1.13685        -1.81708         0.05592
| 21>    C       -2.45116        -1.40123        -0.13051
| 22>    C       -2.82377        -0.06334        -0.10696
| 23>    C       -1.92559         0.98102         0.08735
| 24>    C       -2.34311         2.34711         0.13631
| 25>    C       -0.73065        -3.18735         0.06705
| 26>    C       -1.49990        -4.30629        -0.23216
| 27>    C       -0.78791        -5.48608        -0.09531
| 28>    C        0.53124        -5.27369         0.31954
| 29>    S        0.90384        -3.60961         0.51685
| 30>    C       -1.06544        -6.95804        -0.27816
| 31>    C        0.27097        -7.53694         0.12033
| 32>    C        1.18248        -6.51625         0.45803
| 33>    C        0.82459        -8.78533         0.24173
| 34>    C        2.16350        -8.75078         0.67747
| 35>    S        2.71816        -7.09755         0.92770
| 36>    C       -1.54170         3.47737         0.18871
| 37>    C       -2.28261         4.64716         0.25797
| 38>    C       -3.66173         4.41923         0.26842
| 39>    S       -4.05027         2.75162         0.16929
| 40>    C       -1.98456         6.12301         0.34261
| 41>    C       -3.38499         6.67911         0.43583
| 42>    C       -4.34383         5.64735         0.38237
| 43>    C       -3.96357         7.91450         0.57387
| 44>    C       -5.36888         7.85758         0.63981
| 45>    S       -5.95523         6.20182         0.50691
| 46>    C        2.90150        -9.91923         0.87255
| 47>    C        4.19848       -10.10320         1.29841
| 48>    C        4.85848       -11.37992         1.46860
| 49>    C        6.21732       -11.10932         1.94121
| 50>    C        6.38715        -9.71920         2.05790
| 51>    C        5.13698        -9.04000         1.66002
| 52>    C        7.26553       -11.95517         2.26179
| 53>    C        8.46468       -11.39732         2.69422
| 54>    C        8.62237       -10.01282         2.80773
| 55>    C        7.57285        -9.16056         2.48613
| 56>    C        4.34066       -12.63036         1.24144
| 57>    O        4.94766        -7.83668         1.64392
| 58>    C        5.05733       -13.83013         1.43405
| 59>    C        3.03632       -12.91595         0.78834
| 60>    N        5.57823       -14.84412         1.56940
| 61>    N        1.99566       -13.23875         0.42299
| 62>   Cl        9.76972       -12.44061         3.09414
| 63>   Cl       10.11654        -9.35870         3.34612
| 64>    C       -1.40775        -7.28900        -1.74353
| 65>    C       -2.19786        -7.44828         0.64200
| 66>    C       -0.34044        -6.82460        -2.72685
| 67>    C       -1.93845        -7.15609         2.11468
| 68>    C       -1.25870         6.62523        -0.92009
| 69>    C       -2.01397         6.31680        -2.20705
| 70>    C       -1.15027         6.46461         1.59052
| 71>    C       -1.79397         5.98871         2.88700
| 72>    C       -6.14107         9.00732         0.81399
| 73>    C       -7.50308         9.16398         0.94364
| 74>    C       -8.19340        10.41836         1.15587
| 75>    C       -9.62046        10.11564         1.27661
| 76>    C       -9.80300         8.72969         1.13141
| 77>    C       -8.49190         8.08564         0.91237
| 78>    C      -10.71797        10.93008         1.49830
| 79>    C      -11.97861        10.34561         1.57180
| 80>    C      -12.14882         8.96556         1.42529
| 81>    C      -11.04980         8.14492         1.20174
| 82>    O       -8.29542         6.89532         0.74211
| 83>    C       -7.64717        11.67466         1.23522
| 84>    C       -8.39647        12.85091         1.44824
| 85>    C       -6.27778        11.98975         1.11736
| 86>    N       -5.18481        12.33452         1.03282
| 87>    N       -8.94118        13.84674         1.62047
| 88>   Cl      -13.71971         8.27779         1.52225
| 89>   Cl      -13.34464        11.34933         1.84927
| 90>    H       -3.22026        -2.14110        -0.28485
| 91>    H       -3.86708         0.18121        -0.24499
| 92>    H       -2.52714        -4.24707        -0.54196
| 93>    H        0.32305        -9.71534         0.03941
| 94>    H       -0.46980         3.41092         0.18065
| 95>    H       -3.43494         8.84922         0.63828
| 96>    H        2.33776       -10.81665         0.64824
| 97>    H        7.18408       -13.02697         2.18800
| 98>    H        7.67981        -8.09056         2.56841
| 99>    H       -1.53615        -8.36947        -1.83067
|100>    H       -2.35985        -6.81527        -1.99095
|101>    H       -3.12695        -6.96456         0.33381
|102>    H       -2.31560        -8.52418         0.50016
|103>    H        0.61557        -7.29518        -2.50996
|104>    H       -0.63021        -7.08883        -3.74086
|105>    H       -0.21148        -5.74586        -2.67693
|106>    H       -1.83571        -6.08669         2.28407
|107>    H       -2.76652        -7.52139         2.71706
|108>    H       -1.02772        -7.64613         2.45058
|109>    H       -1.12008         7.70425        -0.83012
|110>    H       -0.27226         6.15913        -0.95785
|111>    H       -2.99802         6.77979        -2.19877
|112>    H       -1.46235         6.70049        -3.06170
|113>    H       -2.13938         5.24393        -2.33414
|114>    H       -0.16683         6.00304         1.48358
|115>    H       -1.01394         7.54703         1.62787
|116>    H       -1.91254         4.90762         2.88465
|117>    H       -1.16954         6.26284         3.73362
|118>    H       -2.77309         6.44246         3.02230
|119>    H       -5.54576         9.91076         0.86706
|120>    H      -10.62866        11.99724         1.61699
|121>    H      -11.16566         7.07880         1.08727
|122> *
|123>
|124>                          ****END OF INPUT****

CARTESIAN COORDINATES (ANGSTROEM)
---------------------------------
  S      1.806860    0.495110    0.634290
  N      1.116880   -0.944660    0.457990
  C     -0.187590   -0.781570    0.258490
  C     -0.565490    0.605400    0.262430
  N      0.486220    1.397750    0.466060
  C     -1.136850   -1.817080    0.055920
  C     -2.451160   -1.401230   -0.130510
  C     -2.823770   -0.063340   -0.106960
  C     -1.925590    0.981020    0.087350
  C     -2.343110    2.347110    0.136310
  C     -0.730650   -3.187350    0.067050
  C     -1.499900   -4.306290   -0.232160
  C     -0.787910   -5.486080   -0.095310
  C      0.531240   -5.273690    0.319540
  S      0.903840   -3.609610    0.516850
  C     -1.065440   -6.958040   -0.278160
  C      0.270970   -7.536940    0.120330
  C      1.182480   -6.516250    0.458030
  C      0.824590   -8.785330    0.241730
  C      2.163500   -8.750780    0.677470
  S      2.718160   -7.097550    0.927700
  C     -1.541700    3.477370    0.188710
  C     -2.282610    4.647160    0.257970
  C     -3.661730    4.419230    0.268420
  S     -4.050270    2.751620    0.169290
  C     -1.984560    6.123010    0.342610
  C     -3.384990    6.679110    0.435830
  C     -4.343830    5.647350    0.382370
  C     -3.963570    7.914500    0.573870
  C     -5.368880    7.857580    0.639810
  S     -5.955230    6.201820    0.506910
  C      2.901500   -9.919230    0.872550
  C      4.198480  -10.103200    1.298410
  C      4.858480  -11.379920    1.468600
  C      6.217320  -11.109320    1.941210
  C      6.387150   -9.719200    2.057900
  C      5.136980   -9.040000    1.660020
  C      7.265530  -11.955170    2.261790
  C      8.464680  -11.397320    2.694220
  C      8.622370  -10.012820    2.807730
  C      7.572850   -9.160560    2.486130
  C      4.340660  -12.630360    1.241440
  O      4.947660   -7.836680    1.643920
  C      5.057330  -13.830130    1.434050
  C      3.036320  -12.915950    0.788340
  N      5.578230  -14.844120    1.569400
  N      1.995660  -13.238750    0.422990
  Cl     9.769720  -12.440610    3.094140
  Cl    10.116540   -9.358700    3.346120
  C     -1.407750   -7.289000   -1.743530
  C     -2.197860   -7.448280    0.642000
  C     -0.340440   -6.824600   -2.726850
  C     -1.938450   -7.156090    2.114680
  C     -1.258700    6.625230   -0.920090
  C     -2.013970    6.316800   -2.207050
  C     -1.150270    6.464610    1.590520
  C     -1.793970    5.988710    2.887000
  C     -6.141070    9.007320    0.813990
  C     -7.503080    9.163980    0.943640
  C     -8.193400   10.418360    1.155870
  C     -9.620460   10.115640    1.276610
  C     -9.803000    8.729690    1.131410
  C     -8.491900    8.085640    0.912370
  C    -10.717970   10.930080    1.498300
  C    -11.978610   10.345610    1.571800
  C    -12.148820    8.965560    1.425290
  C    -11.049800    8.144920    1.201740
  O     -8.295420    6.895320    0.742110
  C     -7.647170   11.674660    1.235220
  C     -8.396470   12.850910    1.448240
  C     -6.277780   11.989750    1.117360
  N     -5.184810   12.334520    1.032820
  N     -8.941180   13.846740    1.620470
  Cl   -13.719710    8.277790    1.522250
  Cl   -13.344640   11.349330    1.849270
  H     -3.220260   -2.141100   -0.284850
  H     -3.867080    0.181210   -0.244990
  H     -2.527140   -4.247070   -0.541960
  H      0.323050   -9.715340    0.039410
  H     -0.469800    3.410920    0.180650
  H     -3.434940    8.849220    0.638280
  H      2.337760  -10.816650    0.648240
  H      7.184080  -13.026970    2.188000
  H      7.679810   -8.090560    2.568410
  H     -1.536150   -8.369470   -1.830670
  H     -2.359850   -6.815270   -1.990950
  H     -3.126950   -6.964560    0.333810
  H     -2.315600   -8.524180    0.500160
  H      0.615570   -7.295180   -2.509960
  H     -0.630210   -7.088830   -3.740860
  H     -0.211480   -5.745860   -2.676930
  H     -1.835710   -6.086690    2.284070
  H     -2.766520   -7.521390    2.717060
  H     -1.027720   -7.646130    2.450580
  H     -1.120080    7.704250   -0.830120
  H     -0.272260    6.159130   -0.957850
  H     -2.998020    6.779790   -2.198770
  H     -1.462350    6.700490   -3.061700
  H     -2.139380    5.243930   -2.334140
  H     -0.166830    6.003040    1.483580
  H     -1.013940    7.547030    1.627870
  H     -1.912540    4.907620    2.884650
  H     -1.169540    6.262840    3.733620
  H     -2.773090    6.442460    3.022300
  H     -5.545760    9.910760    0.867060
  H    -10.628660   11.997240    1.616990
  H    -11.165660    7.078800    1.087270

 Total Charge           Charge          ....    0
 Multiplicity           Mult            ....    1
 Number of Electrons    NEL             ....  586
 Basis Dimension        Dim             .... 1246

ORBITAL ENERGIES
----------------

  NO   OCC          E(Eh)            E(eV)
   0   2.0000    -101.624706     -2765.3488
   1   2.0000    -101.623585     -2765.3183
   2   2.0000    -101.622484     -2765.2884
   3   2.0000    -101.621476     -2765.2609
   4   2.0000     -89.064374     -2423.5648
   5   2.0000     -89.000490     -2421.8265
   6   2.0000     -88.998148     -2421.7627
   7   2.0000     -88.996017     -2421.7047
   8   2.0000     -88.995698     -2421.6961
   9   2.0000     -19.259186      -524.0691
  10   2.0000     -19.257416      -524.0209
  11   2.0000     -14.493573      -394.3902
  12   2.0000     -14.493423      -394.3861
  13   2.0000     -14.453098      -393.2888
  14   2.0000     -14.451697      -393.2507
  15   2.0000     -14.448071      -393.1520
  16   2.0000     -14.446707      -393.1149
  17   2.0000     -10.406077      -283.1638
  18   2.0000     -10.404454      -283.1196
  19   2.0000     -10.390443      -282.7383
  20   2.0000     -10.389931      -282.7244
  21   2.0000     -10.389308      -282.7074
  22   2.0000     -10.388680      -282.6904
  23   2.0000     -10.380324      -282.4630
  24   2.0000     -10.378867      -282.4233
  25   2.0000     -10.376090      -282.3478
  26   2.0000     -10.374954      -282.3169
  27   2.0000     -10.374432      -282.3026
  28   2.0000     -10.373065      -282.2655
  29   2.0000     -10.359848      -281.9058
  30   2.0000     -10.358703      -281.8746
  31   2.0000     -10.358224      -281.8616
  32   2.0000     -10.358117      -281.8587
  33   2.0000     -10.355527      -281.7882
  34   2.0000     -10.354441      -281.7587
  35   2.0000     -10.353217      -281.7254
  36   2.0000     -10.353141      -281.7233
  37   2.0000     -10.352189      -281.6974
  38   2.0000     -10.351388      -281.6756
  39   2.0000     -10.350964      -281.6641
  40   2.0000     -10.350251      -281.6446
  41   2.0000     -10.350129      -281.6413
  42   2.0000     -10.349577      -281.6263
  43   2.0000     -10.348752      -281.6039
  44   2.0000     -10.348266      -281.5906
  45   2.0000     -10.347441      -281.5682
  46   2.0000     -10.342507      -281.4339
  47   2.0000     -10.341939      -281.4185
  48   2.0000     -10.341844      -281.4159
  49   2.0000     -10.341242      -281.3995
  50   2.0000     -10.340573      -281.3813
  51   2.0000     -10.338722      -281.3309
  52   2.0000     -10.338218      -281.3172
  53   2.0000     -10.335318      -281.2383
  54   2.0000     -10.334974      -281.2289
  55   2.0000     -10.334432      -281.2142
  56   2.0000     -10.334291      -281.2103
  57   2.0000     -10.333801      -281.1970
  58   2.0000     -10.332861      -281.1714
  59   2.0000     -10.328151      -281.0433
  60   2.0000     -10.326335      -280.9939
  61   2.0000     -10.325636      -280.9748
  62   2.0000     -10.324860      -280.9537
  63   2.0000     -10.323032      -280.9040
  64   2.0000     -10.320519      -280.8356
  65   2.0000     -10.319859      -280.8176
  66   2.0000     -10.318726      -280.7868
  67   2.0000     -10.310125      -280.5528
  68   2.0000     -10.310044      -280.5506
  69   2.0000     -10.310039      -280.5504
  70   2.0000     -10.309733      -280.5421
  71   2.0000     -10.289421      -279.9894
  72   2.0000     -10.289360      -279.9877
  73   2.0000     -10.289202      -279.9834
  74   2.0000     -10.289069      -279.9798
  75   2.0000      -9.601484      -261.2697
  76   2.0000      -9.600388      -261.2398
  77   2.0000      -9.599339      -261.2113
  78   2.0000      -9.598319      -261.1835
  79   2.0000      -8.174822      -222.4482
  80   2.0000      -8.113893      -220.7902
  81   2.0000      -8.109681      -220.6756
  82   2.0000      -8.107926      -220.6279
  83   2.0000      -8.107473      -220.6156
  84   2.0000      -7.361499      -200.3166
  85   2.0000      -7.360363      -200.2857
  86   2.0000      -7.359358      -200.2583
  87   2.0000      -7.358342      -200.2307
  88   2.0000      -7.351518      -200.0450
  89   2.0000      -7.350866      -200.0272
  90   2.0000      -7.350447      -200.0158
  91   2.0000      -7.349785      -199.9978
  92   2.0000      -7.349347      -199.9859
  93   2.0000      -7.348715      -199.9687
  94   2.0000      -7.348324      -199.9581
  95   2.0000      -7.347700      -199.9411
  96   2.0000      -6.136350      -166.9786
  97   2.0000      -6.128335      -166.7605
  98   2.0000      -6.127305      -166.7324
  99   2.0000      -6.073401      -165.2656
 100   2.0000      -6.069377      -165.1561
 101   2.0000      -6.069310      -165.1543
 102   2.0000      -6.067551      -165.1064
 103   2.0000      -6.067132      -165.0951
 104   2.0000      -6.066172      -165.0689
 105   2.0000      -6.064684      -165.0285
 106   2.0000      -6.063034      -164.9835
 107   2.0000      -6.062491      -164.9688
 108   2.0000      -6.062046      -164.9566
 109   2.0000      -6.060375      -164.9112
 110   2.0000      -6.059911      -164.8986
 111   2.0000      -1.180240       -32.1160
 112   2.0000      -1.177024       -32.0285
 113   2.0000      -1.175355       -31.9830
 114   2.0000      -1.068391       -29.0724
 115   2.0000      -1.067132       -29.0382
 116   2.0000      -1.064756       -28.9735
 117   2.0000      -1.062550       -28.9134
 118   2.0000      -1.053551       -28.6686
 119   2.0000      -1.052258       -28.6334
 120   2.0000      -1.040297       -28.3079
 121   2.0000      -1.033867       -28.1329
 122   2.0000      -1.032095       -28.0847
 123   2.0000      -1.030800       -28.0495
 124   2.0000      -1.028424       -27.9848
 125   2.0000      -1.027133       -27.9497
 126   2.0000      -1.020750       -27.7760
 127   2.0000      -1.010319       -27.4922
 128   2.0000      -0.996900       -27.1270
 129   2.0000      -0.995775       -27.0964
 130   2.0000      -0.982378       -26.7319
 131   2.0000      -0.976628       -26.5754
 132   2.0000      -0.968598       -26.3569
 133   2.0000      -0.967071       -26.3153
 134   2.0000      -0.943651       -25.6781
 135   2.0000      -0.942085       -25.6354
 136   2.0000      -0.935021       -25.4432
 137   2.0000      -0.923574       -25.1317
 138   2.0000      -0.916647       -24.9432
 139   2.0000      -0.915604       -24.9149
 140   2.0000      -0.898334       -24.4449
 141   2.0000      -0.897163       -24.4130
 142   2.0000      -0.896025       -24.3821
 143   2.0000      -0.885494       -24.0955
 144   2.0000      -0.885422       -24.0936
 145   2.0000      -0.884163       -24.0593
 146   2.0000      -0.882142       -24.0043
 147   2.0000      -0.880739       -23.9661
 148   2.0000      -0.879438       -23.9307
 149   2.0000      -0.876965       -23.8634
 150   2.0000      -0.848895       -23.0996
 151   2.0000      -0.835643       -22.7390
 152   2.0000      -0.820525       -22.3276
 153   2.0000      -0.806177       -21.9372
 154   2.0000      -0.805269       -21.9125
 155   2.0000      -0.804965       -21.9042
 156   2.0000      -0.803439       -21.8627
 157   2.0000      -0.789361       -21.4796
 158   2.0000      -0.787606       -21.4319
 159   2.0000      -0.769442       -20.9376
 160   2.0000      -0.763504       -20.7760
 161   2.0000      -0.755458       -20.5570
 162   2.0000      -0.740786       -20.1578
 163   2.0000      -0.736610       -20.0442
 164   2.0000      -0.735828       -20.0229
 165   2.0000      -0.729448       -19.8493
 166   2.0000      -0.727740       -19.8028
 167   2.0000      -0.725812       -19.7504
 168   2.0000      -0.721529       -19.6338
 169   2.0000      -0.721502       -19.6331
 170   2.0000      -0.712720       -19.3941
 171   2.0000      -0.701695       -19.0941
 172   2.0000      -0.690752       -18.7963
 173   2.0000      -0.681131       -18.5345
 174   2.0000      -0.680249       -18.5105
 175   2.0000      -0.676029       -18.3957
 176   2.0000      -0.674893       -18.3648
 177   2.0000      -0.669693       -18.2233
 178   2.0000      -0.661147       -17.9907
 179   2.0000      -0.656635       -17.8680
 180   2.0000      -0.655254       -17.8304
 181   2.0000      -0.653146       -17.7730
 182   2.0000      -0.651997       -17.7417
 183   2.0000      -0.641790       -17.4640
 184   2.0000      -0.633703       -17.2439
 185   2.0000      -0.624527       -16.9942
 186   2.0000      -0.623577       -16.9684
 187   2.0000      -0.611328       -16.6351
 188   2.0000      -0.606959       -16.5162
 189   2.0000      -0.603401       -16.4194
 190   2.0000      -0.602249       -16.3880
 191   2.0000      -0.601807       -16.3760
 192   2.0000      -0.595452       -16.2031
 193   2.0000      -0.594418       -16.1749
 194   2.0000      -0.593996       -16.1634
 195   2.0000      -0.589227       -16.0337
 196   2.0000      -0.586112       -15.9489
 197   2.0000      -0.582860       -15.8604
 198   2.0000      -0.581412       -15.8210
 199   2.0000      -0.580411       -15.7938
 200   2.0000      -0.576828       -15.6963
 201   2.0000      -0.573133       -15.5957
 202   2.0000      -0.570261       -15.5176
 203   2.0000      -0.568696       -15.4750
 204   2.0000      -0.563965       -15.3463
 205   2.0000      -0.563326       -15.3289
 206   2.0000      -0.562974       -15.3193
 207   2.0000      -0.562879       -15.3167
 208   2.0000      -0.561902       -15.2901
 209   2.0000      -0.559553       -15.2262
 210   2.0000      -0.544677       -14.8214
 211   2.0000      -0.543968       -14.8021
 212   2.0000      -0.543408       -14.7869
 213   2.0000      -0.538714       -14.6592
 214   2.0000      -0.536989       -14.6122
 215   2.0000      -0.534910       -14.5556
 216   2.0000      -0.533434       -14.5155
 217   2.0000      -0.529840       -14.4177
 218   2.0000      -0.528996       -14.3947
 219   2.0000      -0.527703       -14.3595
 220   2.0000      -0.522753       -14.2248
 221   2.0000      -0.518235       -14.1019
 222   2.0000      -0.517068       -14.0701
 223   2.0000      -0.516496       -14.0546
 224   2.0000      -0.515684       -14.0325
 225   2.0000      -0.515081       -14.0161
 226   2.0000      -0.513676       -13.9778
 227   2.0000      -0.513105       -13.9623
 228   2.0000      -0.511902       -13.9296
 229   2.0000      -0.508704       -13.8425
 230   2.0000      -0.507508       -13.8100
 231   2.0000      -0.505082       -13.7440
 232   2.0000      -0.501568       -13.6484
 233   2.0000      -0.499599       -13.5948
 234   2.0000      -0.495426       -13.4812
 235   2.0000      -0.492282       -13.3957
 236   2.0000      -0.489881       -13.3303
 237   2.0000      -0.488304       -13.2874
 238   2.0000      -0.485253       -13.2044
 239   2.0000      -0.483951       -13.1690
 240   2.0000      -0.480952       -13.0874
 241   2.0000      -0.477522       -12.9940
 242   2.0000      -0.476223       -12.9587
 243   2.0000      -0.472927       -12.8690
 244   2.0000      -0.471988       -12.8434
 245   2.0000      -0.471666       -12.8347
 246   2.0000      -0.470840       -12.8122
 247   2.0000      -0.467823       -12.7301
 248   2.0000      -0.467722       -12.7274
 249   2.0000      -0.467649       -12.7254
 250   2.0000      -0.467118       -12.7109
 251   2.0000      -0.462362       -12.5815
 252   2.0000      -0.462116       -12.5748
 253   2.0000      -0.461203       -12.5500
 254   2.0000      -0.460804       -12.5391
 255   2.0000      -0.455201       -12.3867
 256   2.0000      -0.454180       -12.3589
 257   2.0000      -0.450429       -12.2568
 258   2.0000      -0.450283       -12.2528
 259   2.0000      -0.445792       -12.1306
 260   2.0000      -0.444796       -12.1035
 261   2.0000      -0.443846       -12.0777
 262   2.0000      -0.443646       -12.0722
 263   2.0000      -0.443171       -12.0593
 264   2.0000      -0.439614       -11.9625
 265   2.0000      -0.438432       -11.9304
 266   2.0000      -0.436859       -11.8875
 267   2.0000      -0.436489       -11.8775
 268   2.0000      -0.436072       -11.8661
 269   2.0000      -0.434960       -11.8359
 270   2.0000      -0.431837       -11.7509
 271   2.0000      -0.431046       -11.7293
 272   2.0000      -0.415767       -11.3136
 273   2.0000      -0.414220       -11.2715
 274   2.0000      -0.413188       -11.2434
 275   2.0000      -0.409110       -11.1325
 276   2.0000      -0.405027       -11.0213
 277   2.0000      -0.388563       -10.5733
 278   2.0000      -0.384059       -10.4508
 279   2.0000      -0.376451       -10.2437
 280   2.0000      -0.370870       -10.0919
 281   2.0000      -0.370601       -10.0846
 282   2.0000      -0.369386       -10.0515
 283   2.0000      -0.368617       -10.0306
 284   2.0000      -0.366831        -9.9820
 285   2.0000      -0.364761        -9.9257
 286   2.0000      -0.361163        -9.8277
 287   2.0000      -0.356163        -9.6917
 288   2.0000      -0.342850        -9.3294
 289   2.0000      -0.340373        -9.2620
 290   2.0000      -0.329048        -8.9538
 291   2.0000      -0.291499        -7.9321
 292   2.0000      -0.266586        -7.2542
 293   0.0000      -0.087810        -2.3894
 294   0.0000      -0.069211        -1.8833
 295   0.0000      -0.054472        -1.4822
 296   0.0000      -0.041575        -1.1313
 297   0.0000      -0.037963        -1.0330

MULLIKEN ATOMIC CHARGES
-----------------------
   0 S :    0.545821
   1 N :   -0.344256
   2 C :    0.008796
   3 C :    0.043048
   4 N :   -0.325172
   5 C :    0.106945
   6 C :   -0.056211
   7 C :   -0.051473
   8 C :    0.090508
   9 C :   -0.111890
  10 C :   -0.103946
  11 C :   -0.047083
  12 C :    0.003487
  13 C :   -0.072179
  14 S :    0.206210
  15 C :   -0.197693
  16 C :    0.012827
  17 C :   -0.036359
  18 C :   -0.049700
  19 C :   -0.094777
  20 S :    0.220889
  21 C :   -0.036042
  22 C :    0.004636
  23 C :   -0.072869
  24 S :    0.145416
  25 C :   -0.193021
  26 C :    0.012696
  27 C :   -0.035800
  28 C :   -0.050384
  29 C :   -0.092916
  30 S :    0.219998
  31 C :    0.001219
  32 C :   -0.149746
  33 C :    0.297912
  34 C :    0.015174
  35 C :   -0.063862
  36 C :    0.232139
  37 C :   -0.003297
  38 C :    0.032748
  39 C :    0.042078
  40 C :   -0.013974
  41 C :   -0.383961
  42 O :   -0.203187
  43 C :   -0.131877
  44 C :   -0.127903
  45 N :    0.105568
  46 N :    0.098323
  47 Cl:   -0.040220
  48 Cl:   -0.047954
  49 C :    0.035683
  50 C :    0.031546
  51 C :   -0.020300
  52 C :   -0.017779
  53 C :    0.035023
  54 C :   -0.019815
  55 C :    0.028608
  56 C :   -0.017445
  57 C :    0.001616
  58 C :   -0.150187
  59 C :    0.296725
  60 C :    0.011262
  61 C :   -0.065496
  62 C :    0.232975
  63 C :    0.003146
  64 C :    0.029664
  65 C :    0.042178
  66 C :   -0.010592
  67 O :   -0.204447
  68 C :   -0.379340
  69 C :   -0.132949
  70 C :   -0.126964
  71 N :    0.095475
  72 N :    0.108126
  73 Cl:   -0.047888
  74 Cl:   -0.039233
  75 H :    0.010828
  76 H :    0.022734
  77 H :    0.002470
  78 H :    0.027234
  79 H :    0.021053
  80 H :    0.028214
  81 H :    0.026411
  82 H :    0.027065
  83 H :    0.029038
  84 H :    0.030056
  85 H :    0.023888
  86 H :    0.023327
  87 H :    0.029772
  88 H :    0.040610
  89 H :    0.036932
  90 H :    0.040988
  91 H :    0.039285
  92 H :    0.037424
  93 H :    0.040614
  94 H :    0.029662
  95 H :    0.028052
  96 H :    0.039071
  97 H :    0.037991
  98 H :    0.040312
  99 H :    0.028717
 100 H :    0.029207
 101 H :    0.040829
 102 H :    0.037933
 103 H :    0.038697
 104 H :    0.027132
 105 H :    0.027538
 106 H :    0.028640
Sum of atomic charges:   -0.0000000

LOEWDIN ATOMIC CHARGES
----------------------
   0 S :    0.650267
   1 N :   -0.295722
   2 C :   -0.046136
   3 C :   -0.035313
   4 N :   -0.280211
   5 C :   -0.044981
   6 C :   -0.007263
   7 C :   -0.016500
   8 C :   -0.045645
   9 C :   -0.149982
  10 C :   -0.154115
  11 C :   -0.054108
  12 C :   -0.023789
  13 C :   -0.211751
  14 S :    0.486801
  15 C :   -0.040475
  16 C :   -0.050842
  17 C :   -0.164074
  18 C :   -0.006387
  19 C :   -0.194507
  20 S :    0.508664
  21 C :   -0.044835
  22 C :   -0.021791
  23 C :   -0.202454
  24 S :    0.439291
  25 C :   -0.039954
  26 C :   -0.049363
  27 C :   -0.166108
  28 C :   -0.005850
  29 C :   -0.193592
  30 S :    0.507729
  31 C :    0.064237
  32 C :   -0.136438
  33 C :    0.080830
  34 C :   -0.016524
  35 C :   -0.046942
  36 C :    0.091064
  37 C :   -0.010603
  38 C :   -0.131521
  39 C :   -0.135367
  40 C :   -0.000325
  41 C :   -0.152350
  42 O :   -0.170607
  43 C :   -0.015214
  44 C :   -0.014703
  45 N :   -0.055974
  46 N :   -0.060158
  47 Cl:    0.154956
  48 Cl:    0.151482
  49 C :   -0.013854
  50 C :   -0.014937
  51 C :   -0.059380
  52 C :   -0.059386
  53 C :   -0.012974
  54 C :   -0.059537
  55 C :   -0.014118
  56 C :   -0.059409
  57 C :    0.064629
  58 C :   -0.135657
  59 C :    0.080789
  60 C :   -0.016500
  61 C :   -0.047042
  62 C :    0.091227
  63 C :   -0.010207
  64 C :   -0.131528
  65 C :   -0.135232
  66 C :    0.000089
  67 O :   -0.170912
  68 C :   -0.151267
  69 C :   -0.015411
  70 C :   -0.014571
  71 N :   -0.059400
  72 N :   -0.054925
  73 Cl:    0.151834
  74 Cl:    0.155679
  75 H :    0.036496
  76 H :    0.030342
  77 H :    0.031353
  78 H :    0.041647
  79 H :    0.034184
  80 H :    0.042095
  81 H :    0.051794
  82 H :    0.046839
  83 H :    0.049303
  84 H :    0.025929
  85 H :    0.023553
  86 H :    0.023453
  87 H :    0.025943
  88 H :    0.027558
  89 H :    0.029106
  90 H :    0.027244
  91 H :    0.026874
  92 H :    0.029188
  93 H :    0.027630
  94 H :    0.025900
  95 H :    0.025530
  96 H :    0.027005
  97 H :    0.029573
  98 H :    0.027053
  99 H :    0.025771
 100 H :    0.025704
 101 H :    0.027440
 102 H :    0.029537
 103 H :    0.026878
 104 H :    0.052022
 105 H :    0.046956
 106 H :    0.049252

  Mayer bond orders larger than 0.100000
B(  0-S ,  1-N ) :   1.2678 B(  0-S ,  4-N ) :   1.2708 B(  1-N ,  2-C ) :   1.4960
B(  1-N ,  4-N ) :   0.1470 B(  2-C ,  3-C ) :   1.1618 B(  2-C ,  5-C ) :   1.1741
B(  3-C ,  4-N ) :   1.5133 B(  3-C ,  8-C ) :   1.2000 B(  5-C ,  6-C ) :   1.4669
B(  5-C , 10-C ) :   1.1080 B(  6-C ,  7-C ) :   1.2735 B(  6-C , 75-H ) :   0.9911
B(  7-C ,  8-C ) :   1.4522 B(  7-C , 76-H ) :   0.9849 B(  8-C ,  9-C ) :   1.1265
B(  9-C , 21-C ) :   1.4788 B(  9-C , 24-S ) :   1.1149 B( 10-C , 11-C ) :   1.4488
B( 10-C , 14-S ) :   1.1466 B( 11-C , 12-C ) :   1.3593 B( 11-C , 77-H ) :   0.9967
B( 12-C , 13-C ) :   1.4858 B( 12-C , 15-C ) :   0.9210 B( 13-C , 14-S ) :   1.0631
B( 13-C , 17-C ) :   1.2307 B( 15-C , 16-C ) :   0.9066 B( 15-C , 49-C ) :   1.0404
B( 15-C , 50-C ) :   1.0425 B( 16-C , 17-C ) :   1.4102 B( 16-C , 18-C ) :   1.4156
B( 17-C , 20-S ) :   1.1123 B( 18-C , 19-C ) :   1.2980 B( 18-C , 78-H ) :   1.0178
B( 19-C , 20-S ) :   1.0637 B( 19-C , 31-C ) :   1.3333 B( 21-C , 22-C ) :   1.3008
B( 21-C , 79-H ) :   0.9984 B( 22-C , 23-C ) :   1.5029 B( 22-C , 25-C ) :   0.9222
B( 23-C , 24-S ) :   1.0843 B( 23-C , 27-C ) :   1.2253 B( 25-C , 26-C ) :   0.9054
B( 25-C , 53-C ) :   1.0408 B( 25-C , 55-C ) :   1.0423 B( 26-C , 27-C ) :   1.4121
B( 26-C , 28-C ) :   1.4126 B( 27-C , 30-S ) :   1.1100 B( 28-C , 29-C ) :   1.3009
B( 28-C , 80-H ) :   1.0183 B( 29-C , 30-S ) :   1.0640 B( 29-C , 57-C ) :   1.3301
B( 31-C , 32-C ) :   1.4727 B( 31-C , 81-H ) :   0.9398 B( 32-C , 33-C ) :   1.1139
B( 32-C , 36-C ) :   0.9928 B( 33-C , 34-C ) :   0.9979 B( 33-C , 41-C ) :   1.6232
B( 34-C , 35-C ) :   1.3337 B( 34-C , 37-C ) :   1.3714 B( 35-C , 36-C ) :   0.9578
B( 35-C , 40-C ) :   1.3755 B( 36-C , 42-O ) :   2.1221 B( 37-C , 38-C ) :   1.3661
B( 37-C , 82-H ) :   0.9856 B( 38-C , 39-C ) :   1.4131 B( 38-C , 47-Cl) :   1.0789
B( 39-C , 40-C ) :   1.3472 B( 39-C , 48-Cl) :   1.0497 B( 40-C , 83-H ) :   1.0133
B( 41-C , 43-C ) :   1.1343 B( 41-C , 44-C ) :   1.1373 B( 43-C , 45-N ) :   2.9657
B( 44-C , 46-N ) :   2.9533 B( 49-C , 51-C ) :   1.0844 B( 49-C , 84-H ) :   0.9485
B( 49-C , 85-H ) :   0.9482 B( 50-C , 52-C ) :   1.0856 B( 50-C , 86-H ) :   0.9479
B( 50-C , 87-H ) :   0.9482 B( 51-C , 88-H ) :   0.9684 B( 51-C , 89-H ) :   0.9705
B( 51-C , 90-H ) :   0.9679 B( 52-C , 91-H ) :   0.9679 B( 52-C , 92-H ) :   0.9703
B( 52-C , 93-H ) :   0.9682 B( 53-C , 54-C ) :   1.0850 B( 53-C , 94-H ) :   0.9487
B( 53-C , 95-H ) :   0.9482 B( 54-C , 96-H ) :   0.9685 B( 54-C , 97-H ) :   0.9701
B( 54-C , 98-H ) :   0.9679 B( 55-C , 56-C ) :   1.0873 B( 55-C , 99-H ) :   0.9478
B( 55-C ,100-H ) :   0.9484 B( 56-C ,101-H ) :   0.9674 B( 56-C ,102-H ) :   0.9700
B( 56-C ,103-H ) :   0.9680 B( 57-C , 58-C ) :   1.4774 B( 57-C ,104-H ) :   0.9405
B( 58-C , 59-C ) :   1.1109 B( 58-C , 62-C ) :   0.9931 B( 59-C , 60-C ) :   1.0009
B( 59-C , 68-C ) :   1.6269 B( 60-C , 61-C ) :   1.3343 B( 60-C , 63-C ) :   1.3726
B( 61-C , 62-C ) :   0.9580 B( 61-C , 66-C ) :   1.3779 B( 62-C , 67-O ) :   2.1189
B( 63-C , 64-C ) :   1.3682 B( 63-C ,105-H ) :   0.9838 B( 64-C , 65-C ) :   1.4124
B( 64-C , 74-Cl) :   1.0796 B( 65-C , 66-C ) :   1.3491 B( 65-C , 73-Cl) :   1.0501
B( 66-C ,106-H ) :   1.0121 B( 68-C , 69-C ) :   1.1315 B( 68-C , 70-C ) :   1.1369
B( 69-C , 72-N ) :   2.9671 B( 70-C , 71-N ) :   2.9513

-----------------------------------------------------------------------------
         ABSORPTION SPECTRUM VIA TRANSITION ELECTRIC DIPOLE MOMENTS
-----------------------------------------------------------------------------
State   Energy  Wavelength   fosc         T2         TX        TY        TZ
        (cm-1)    (nm)                  (au**2)     (au)      (au)      (au)
-----------------------------------------------------------------------------
   0   16206.1    617.1   3.639288721  73.92864  -4.30641   7.44140  -0.09515
   1   23655.0    422.7   0.070549167   0.98185   0.39358   0.04486  -0.90826
   2   27328.8    365.9   0.303217195   3.65266   1.16367  -1.51603   0.01333
   3   28397.9    352.1   0.009507579   0.11022  -0.10709   0.27984  -0.14298
   4   29206.0    342.4   0.444707625   5.01276   1.78653  -1.34060   0.15454
   5   29897.6    334.5   0.005683201   0.06258   0.00637  -0.00568  -0.25001
   6   33070.3    302.4   0.074160752   0.73826  -0.55641  -0.63856  -0.14464
   7   35531.3    281.4   0.028756221   0.26644   0.33909   0.04797  -0.38620
   8   36222.1    276.1   0.498242401   4.52837  -1.86723  -0.98565  -0.26516
   9   36701.7    272.5   0.022361935   0.20059   0.37055   0.23357   0.09337
  10   37212.4    268.7   0.012555834   0.11108  -0.20415   0.05275  -0.25811
  11   37498.7    266.7   0.166249547   1.45955   0.57235   1.04205   0.21469
  12   37713.5    265.2   0.136837615   1.19450   0.68044   0.83913   0.16536
  13   38886.7    257.2   0.202937077   1.71805   0.99801   0.78387   0.32801
  14   39173.9    255.3   0.006018983   0.05058   0.00710   0.09622  -0.20316
  15   39615.4    252.4   1.382599786  11.48967   2.89679   1.69216   0.48459
  16   40249.8    248.4   0.056589531   0.46286   0.29727   0.55452  -0.25884

Dispersion correction           -0.069059912
FINAL SINGLE POINT ENERGY     -6536.104053236396

DIPOLE MOMENT
-------------
                                X             Y             Z
Electronic contribution:      4.08010       0.91519      28.38625
Nuclear contribution   :     -4.22283      -0.72009     -29.13050
                        -----------------------------------------
Total Dipole Moment    :     -0.14272       0.19509      -0.74425
                        -----------------------------------------
Magnitude (a.u.)       :      0.78252
Magnitude (Debye)      :      1.98901

Rotational constants in cm-1:     0.001906     0.000141     0.000134
Rotational constants in MHz :    57.150412     4.236975     4.028465

                             ****ORCA TERMINATED NORMALLY****
TOTAL RUN TIME: 0 days 0 hours 11 minutes 59 seconds 509 msec
