                         Program Version 4.2.0 -  RELEASE  -
|  1> # ORCA input file
|  2> # SCF done       -128.263594542749          0.000252630751
|  3> ! wb97x-d3 def2-SVP def2/J RIJCOSX Grid4 TightSCF
|  4> %maxcore 5000
|  5> %tddft
|  6>     Mode sTDA
|  7>     Ethresh 5.0
|  8>     maxcore 5000
|  9> end
| 10>
| 11> %pal
| 12>   nprocs 6
| 13>   end
| 14> * xyz 0 1
| 15>    C       -1.02387         1.66881        -0.27337
| 16>    C       -0.20853         0.91583         0.57498
| 17>    C       -0.13612        -0.49551         0.50104
| 18>    C       -0.76782        -1.22165        -0.51412
| 19>    C       -1.55495        -0.47344        -1.42893
| 20>    C       -1.71147         0.95031        -1.28787
| 21>    N       -2.25271        -0.94638        -2.45885
| 22>    S       -3.02785         0.26558        -3.17505
| 23>    N       -2.51923         1.45254        -2.21850
| 24>    O        0.50889         1.59272         1.52775
| 25>    O        0.61483        -1.21075         1.39100
| 26>    C        0.33095        -1.06689         2.78428
| 27>    C        1.93283         1.54067         1.38336
| 28>    C       -1.14363         3.08690        -0.13027
| 29>    C       -0.65066        -2.64444        -0.59653
| 30>    S       -0.33618         3.93598         1.14769
| 31>    C       -1.00739         5.45373         0.62025
| 32>    C       -1.80971         5.27468        -0.49897
| 33>    C       -1.88659         3.95522        -0.91490
| 34>    C       -1.22751        -3.48984        -1.53201
| 35>    C       -0.93852        -4.82808        -1.31751
| 36>    C       -0.13200        -5.04608        -0.20817
| 37>    S        0.28108        -3.53951         0.55913
| 38>    C       -0.76318         6.68045         1.26793
| 39>    C        0.00644         6.90129         2.36446
| 40>    C        0.29561        -6.29858         0.27369
| 41>    C        1.01730        -6.54647         1.39716
| 42>    C        0.15810         8.22759         2.95918
| 43>    N        0.98112         8.15934         4.07357
| 44>    C        1.48836         6.94561         4.39647
| 45>    S        0.92149         5.71825         3.26229
| 46>    S        1.60691        -5.37391         2.54780
| 47>    C        2.30760        -6.64365         3.55308
| 48>    N        2.08546        -7.86183         3.00383
| 49>    C        1.38392        -7.90008         1.80799
| 50>    O       -0.35507         9.25206         2.56787
| 51>    C        1.29614         9.35558         4.83027
| 52>    S        2.47459         6.62522         5.65499
| 53>    S        3.09586        -6.35607         4.95181
| 54>    C        2.57780        -9.08434         3.60862
| 55>    O        1.11861        -8.92505         1.22048
| 56>    C        2.63412         9.94504         4.40277
| 57>    C        2.55887         2.20294         2.59674
| 58>    C       -1.07612        -1.52770         3.13738
| 59>    C        4.03568        -9.33271         3.24350
| 60>    H        1.07727        -1.70210         3.26583
| 61>    H        0.47113        -0.03001         3.10205
| 62>    H        2.26635         0.50102         1.29346
| 63>    H        2.21184         2.07677         0.46617
| 64>    H       -2.31889         6.08863        -0.98371
| 65>    H       -2.46012         3.61201        -1.75538
| 66>    H       -1.83799        -3.11822        -2.33349
| 67>    H       -1.30360        -5.62874        -1.93593
| 68>    H       -1.24905         7.55768         0.85589
| 69>    H        0.01159        -7.17211        -0.30184
| 70>    H        0.48733        10.06382         4.63524
| 71>    H        1.31709         9.09071         5.89014
| 72>    H        2.46528        -8.99606         4.69181
| 73>    H        1.94633        -9.89107         3.22904
| 74>    H        2.61501        10.19521         3.34456
| 75>    H        2.83069        10.84827         4.97257
| 76>    H        3.43641         9.23455         4.58706
| 77>    H        2.30281         1.66057         3.50271
| 78>    H        3.63907         2.21267         2.48568
| 79>    H        2.19915         3.22320         2.69178
| 80>    H       -1.22188        -2.56405         2.84359
| 81>    H       -1.22284        -1.44126         4.21006
| 82>    H       -1.81726        -0.91026         2.63240
| 83>    H        4.65938        -8.51791         3.60348
| 84>    H        4.37208       -10.25773         3.70225
| 85>    H        4.14535        -9.41601         2.16469
| 86> *
| 87>
| 88>                          ****END OF INPUT****

CARTESIAN COORDINATES (ANGSTROEM)
---------------------------------
  C     -1.023870    1.668810   -0.273370
  C     -0.208530    0.915830    0.574980
  C     -0.136120   -0.495510    0.501040
  C     -0.767820   -1.221650   -0.514120
  C     -1.554950   -0.473440   -1.428930
  C     -1.711470    0.950310   -1.287870
  N     -2.252710   -0.946380   -2.458850
  S     -3.027850    0.265580   -3.175050
  N     -2.519230    1.452540   -2.218500
  O      0.508890    1.592720    1.527750
  O      0.614830   -1.210750    1.391000
  C      0.330950   -1.066890    2.784280
  C      1.932830    1.540670    1.383360
  C     -1.143630    3.086900   -0.130270
  C     -0.650660   -2.644440   -0.596530
  S     -0.336180    3.935980    1.147690
  C     -1.007390    5.453730    0.620250
  C     -1.809710    5.274680   -0.498970
  C     -1.886590    3.955220   -0.914900
  C     -1.227510   -3.489840   -1.532010
  C     -0.938520   -4.828080   -1.317510
  C     -0.132000   -5.046080   -0.208170
  S      0.281080   -3.539510    0.559130
  C     -0.763180    6.680450    1.267930
  C      0.006440    6.901290    2.364460
  C      0.295610   -6.298580    0.273690
  C      1.017300   -6.546470    1.397160
  C      0.158100    8.227590    2.959180
  N      0.981120    8.159340    4.073570
  C      1.488360    6.945610    4.396470
  S      0.921490    5.718250    3.262290
  S      1.606910   -5.373910    2.547800
  C      2.307600   -6.643650    3.553080
  N      2.085460   -7.861830    3.003830
  C      1.383920   -7.900080    1.807990
  O     -0.355070    9.252060    2.567870
  C      1.296140    9.355580    4.830270
  S      2.474590    6.625220    5.654990
  S      3.095860   -6.356070    4.951810
  C      2.577800   -9.084340    3.608620
  O      1.118610   -8.925050    1.220480
  C      2.634120    9.945040    4.402770
  C      2.558870    2.202940    2.596740
  C     -1.076120   -1.527700    3.137380
  C      4.035680   -9.332710    3.243500
  H      1.077270   -1.702100    3.265830
  H      0.471130   -0.030010    3.102050
  H      2.266350    0.501020    1.293460
  H      2.211840    2.076770    0.466170
  H     -2.318890    6.088630   -0.983710
  H     -2.460120    3.612010   -1.755380
  H     -1.837990   -3.118220   -2.333490
  H     -1.303600   -5.628740   -1.935930
  H     -1.249050    7.557680    0.855890
  H      0.011590   -7.172110   -0.301840
  H      0.487330   10.063820    4.635240
  H      1.317090    9.090710    5.890140
  H      2.465280   -8.996060    4.691810
  H      1.946330   -9.891070    3.229040
  H      2.615010   10.195210    3.344560
  H      2.830690   10.848270    4.972570
  H      3.436410    9.234550    4.587060
  H      2.302810    1.660570    3.502710
  H      3.639070    2.212670    2.485680
  H      2.199150    3.223200    2.691780
  H     -1.221880   -2.564050    2.843590
  H     -1.222840   -1.441260    4.210060
  H     -1.817260   -0.910260    2.632400
  H      4.659380   -8.517910    3.603480
  H      4.372080  -10.257730    3.702250
  H      4.145350   -9.416010    2.164690

 Total Charge           Charge          ....    0
 Multiplicity           Mult            ....    1
 Number of Electrons    NEL             ....  378
 Basis Dimension        Dim             ....  788

ORBITAL ENERGIES
----------------

  NO   OCC          E(Eh)            E(eV)
   0   2.0000     -89.053712     -2423.2747
   1   2.0000     -88.986875     -2421.4560
   2   2.0000     -88.985820     -2421.4273
   3   2.0000     -88.985339     -2421.4142
   4   2.0000     -88.983595     -2421.3667
   5   2.0000     -88.907892     -2419.3067
   6   2.0000     -88.906567     -2419.2707
   7   2.0000     -19.299858      -525.1758
   8   2.0000     -19.298698      -525.1443
   9   2.0000     -19.241169      -523.5788
  10   2.0000     -19.239849      -523.5429
  11   2.0000     -14.508901      -394.8073
  12   2.0000     -14.507591      -394.7716
  13   2.0000     -14.484745      -394.1499
  14   2.0000     -14.484078      -394.1318
  15   2.0000     -10.425185      -283.6837
  16   2.0000     -10.423896      -283.6486
  17   2.0000     -10.417910      -283.4857
  18   2.0000     -10.416453      -283.4461
  19   2.0000     -10.393143      -282.8118
  20   2.0000     -10.392293      -282.7887
  21   2.0000     -10.369398      -282.1657
  22   2.0000     -10.369031      -282.1557
  23   2.0000     -10.363558      -282.0068
  24   2.0000     -10.361356      -281.9468
  25   2.0000     -10.349370      -281.6207
  26   2.0000     -10.347757      -281.5768
  27   2.0000     -10.346118      -281.5322
  28   2.0000     -10.345811      -281.5238
  29   2.0000     -10.344309      -281.4830
  30   2.0000     -10.343823      -281.4697
  31   2.0000     -10.340528      -281.3801
  32   2.0000     -10.339102      -281.3413
  33   2.0000     -10.337254      -281.2910
  34   2.0000     -10.336662      -281.2749
  35   2.0000     -10.335662      -281.2477
  36   2.0000     -10.335046      -281.2309
  37   2.0000     -10.314525      -280.6725
  38   2.0000     -10.312990      -280.6307
  39   2.0000     -10.306317      -280.4492
  40   2.0000     -10.304748      -280.4064
  41   2.0000     -10.295784      -280.1625
  42   2.0000     -10.294899      -280.1384
  43   2.0000     -10.287223      -279.9296
  44   2.0000     -10.286394      -279.9070
  45   2.0000      -8.164395      -222.1645
  46   2.0000      -8.100234      -220.4186
  47   2.0000      -8.099048      -220.3863
  48   2.0000      -8.098519      -220.3719
  49   2.0000      -8.097422      -220.3421
  50   2.0000      -8.023836      -218.3397
  51   2.0000      -8.022491      -218.3031
  52   2.0000      -6.126001      -166.6970
  53   2.0000      -6.117932      -166.4774
  54   2.0000      -6.116759      -166.4455
  55   2.0000      -6.060401      -164.9119
  56   2.0000      -6.058640      -164.8640
  57   2.0000      -6.058618      -164.8634
  58   2.0000      -6.057004      -164.8195
  59   2.0000      -6.056131      -164.7957
  60   2.0000      -6.054413      -164.7489
  61   2.0000      -6.054122      -164.7410
  62   2.0000      -6.052472      -164.6961
  63   2.0000      -6.051682      -164.6746
  64   2.0000      -6.050916      -164.6538
  65   2.0000      -6.050059      -164.6305
  66   2.0000      -6.049137      -164.6054
  67   2.0000      -5.983915      -162.8306
  68   2.0000      -5.982577      -162.7942
  69   2.0000      -5.980383      -162.7345
  70   2.0000      -5.979027      -162.6976
  71   2.0000      -5.974082      -162.5630
  72   2.0000      -5.972754      -162.5269
  73   2.0000      -1.216632       -33.1062
  74   2.0000      -1.191593       -32.4249
  75   2.0000      -1.187787       -32.3213
  76   2.0000      -1.186440       -32.2847
  77   2.0000      -1.171326       -31.8734
  78   2.0000      -1.114936       -30.3389
  79   2.0000      -1.113577       -30.3020
  80   2.0000      -1.035594       -28.1799
  81   2.0000      -1.032323       -28.0909
  82   2.0000      -1.020239       -27.7621
  83   2.0000      -1.004232       -27.3266
  84   2.0000      -0.983167       -26.7533
  85   2.0000      -0.980353       -26.6768
  86   2.0000      -0.940409       -25.5898
  87   2.0000      -0.926345       -25.2071
  88   2.0000      -0.918426       -24.9916
  89   2.0000      -0.917199       -24.9583
  90   2.0000      -0.898502       -24.4495
  91   2.0000      -0.895283       -24.3619
  92   2.0000      -0.884624       -24.0718
  93   2.0000      -0.880386       -23.9565
  94   2.0000      -0.870079       -23.6760
  95   2.0000      -0.868355       -23.6291
  96   2.0000      -0.866768       -23.5860
  97   2.0000      -0.864419       -23.5220
  98   2.0000      -0.842233       -22.9183
  99   2.0000      -0.819110       -22.2891
 100   2.0000      -0.793734       -21.5986
 101   2.0000      -0.784561       -21.3490
 102   2.0000      -0.777567       -21.1587
 103   2.0000      -0.773051       -21.0358
 104   2.0000      -0.764567       -20.8049
 105   2.0000      -0.756904       -20.5964
 106   2.0000      -0.753040       -20.4913
 107   2.0000      -0.738660       -20.1000
 108   2.0000      -0.727789       -19.8041
 109   2.0000      -0.726454       -19.7678
 110   2.0000      -0.714417       -19.4403
 111   2.0000      -0.689429       -18.7603
 112   2.0000      -0.680962       -18.5299
 113   2.0000      -0.679947       -18.5023
 114   2.0000      -0.667081       -18.1522
 115   2.0000      -0.658108       -17.9080
 116   2.0000      -0.654517       -17.8103
 117   2.0000      -0.645433       -17.5631
 118   2.0000      -0.640031       -17.4161
 119   2.0000      -0.637037       -17.3347
 120   2.0000      -0.631206       -17.1760
 121   2.0000      -0.618221       -16.8226
 122   2.0000      -0.612370       -16.6634
 123   2.0000      -0.606956       -16.5161
 124   2.0000      -0.604367       -16.4457
 125   2.0000      -0.597497       -16.2587
 126   2.0000      -0.592555       -16.1243
 127   2.0000      -0.589707       -16.0467
 128   2.0000      -0.587216       -15.9790
 129   2.0000      -0.586955       -15.9718
 130   2.0000      -0.578046       -15.7294
 131   2.0000      -0.574745       -15.6396
 132   2.0000      -0.560848       -15.2615
 133   2.0000      -0.560071       -15.2403
 134   2.0000      -0.558536       -15.1985
 135   2.0000      -0.554267       -15.0824
 136   2.0000      -0.541883       -14.7454
 137   2.0000      -0.539209       -14.6726
 138   2.0000      -0.534104       -14.5337
 139   2.0000      -0.532066       -14.4783
 140   2.0000      -0.527433       -14.3522
 141   2.0000      -0.525280       -14.2936
 142   2.0000      -0.518911       -14.1203
 143   2.0000      -0.517236       -14.0747
 144   2.0000      -0.513798       -13.9811
 145   2.0000      -0.512171       -13.9369
 146   2.0000      -0.506989       -13.7959
 147   2.0000      -0.506836       -13.7917
 148   2.0000      -0.502347       -13.6695
 149   2.0000      -0.501473       -13.6458
 150   2.0000      -0.498652       -13.5690
 151   2.0000      -0.495477       -13.4826
 152   2.0000      -0.490813       -13.3557
 153   2.0000      -0.487994       -13.2790
 154   2.0000      -0.487512       -13.2659
 155   2.0000      -0.485066       -13.1993
 156   2.0000      -0.482394       -13.1266
 157   2.0000      -0.480578       -13.0772
 158   2.0000      -0.479477       -13.0472
 159   2.0000      -0.478532       -13.0215
 160   2.0000      -0.476371       -12.9627
 161   2.0000      -0.469116       -12.7653
 162   2.0000      -0.468790       -12.7564
 163   2.0000      -0.463574       -12.6145
 164   2.0000      -0.456023       -12.4090
 165   2.0000      -0.451946       -12.2981
 166   2.0000      -0.449378       -12.2282
 167   2.0000      -0.445553       -12.1241
 168   2.0000      -0.443205       -12.0602
 169   2.0000      -0.433630       -11.7997
 170   2.0000      -0.430106       -11.7038
 171   2.0000      -0.429333       -11.6827
 172   2.0000      -0.414355       -11.2752
 173   2.0000      -0.404656       -11.0112
 174   2.0000      -0.394133       -10.7249
 175   2.0000      -0.387628       -10.5479
 176   2.0000      -0.386487       -10.5168
 177   2.0000      -0.381782       -10.3888
 178   2.0000      -0.376907       -10.2562
 179   2.0000      -0.359764        -9.7897
 180   2.0000      -0.358033        -9.7426
 181   2.0000      -0.356001        -9.6873
 182   2.0000      -0.353742        -9.6258
 183   2.0000      -0.343585        -9.3494
 184   2.0000      -0.330470        -8.9925
 185   2.0000      -0.321107        -8.7378
 186   2.0000      -0.319831        -8.7030
 187   2.0000      -0.299939        -8.1618
 188   2.0000      -0.270047        -7.3483
 189   0.0000      -0.068102        -1.8532
 190   0.0000      -0.032153        -0.8749
 191   0.0000      -0.023029        -0.6266
 192   0.0000       0.026379         0.7178
 193   0.0000       0.036488         0.9929

MULLIKEN ATOMIC CHARGES
-----------------------
   0 C :    0.126448
   1 C :    0.078299
   2 C :    0.081336
   3 C :    0.124651
   4 C :    0.017139
   5 C :    0.020756
   6 N :   -0.326205
   7 S :    0.530501
   8 N :   -0.328501
   9 O :   -0.388320
  10 O :   -0.377002
  11 C :    0.113840
  12 C :    0.118370
  13 C :   -0.140833
  14 C :   -0.137576
  15 S :    0.126915
  16 C :   -0.080138
  17 C :    0.019469
  18 C :    0.009286
  19 C :    0.014303
  20 C :    0.018413
  21 C :   -0.081811
  22 S :    0.125953
  23 C :    0.041983
  24 C :   -0.207261
  25 C :    0.042773
  26 C :   -0.215379
  27 C :    0.282957
  28 N :   -0.278202
  29 C :    0.034003
  30 S :    0.105157
  31 S :    0.112217
  32 C :    0.031670
  33 N :   -0.278776
  34 C :    0.289323
  35 O :   -0.211397
  36 C :    0.076937
  37 S :   -0.177792
  38 S :   -0.181131
  39 C :    0.076260
  40 O :   -0.213278
  41 C :   -0.048882
  42 C :   -0.031004
  43 C :   -0.065672
  44 C :   -0.046996
  45 H :    0.057030
  46 H :    0.062130
  47 H :    0.059859
  48 H :    0.036597
  49 H :    0.016393
  50 H :    0.028629
  51 H :    0.027300
  52 H :    0.015323
  53 H :    0.048819
  54 H :    0.048135
  55 H :    0.064717
  56 H :    0.057957
  57 H :    0.057653
  58 H :    0.063417
  59 H :    0.042754
  60 H :    0.045935
  61 H :    0.045977
  62 H :    0.043645
  63 H :    0.048548
  64 H :    0.045197
  65 H :    0.050052
  66 H :    0.052497
  67 H :    0.044800
  68 H :    0.045363
  69 H :    0.045035
  70 H :    0.043432
Sum of atomic charges:    0.0000000

LOEWDIN ATOMIC CHARGES
----------------------
   0 C :   -0.059910
   1 C :    0.034438
   2 C :    0.037952
   3 C :   -0.063761
   4 C :   -0.036595
   5 C :   -0.038076
   6 N :   -0.279439
   7 S :    0.635908
   8 N :   -0.279063
   9 O :   -0.127497
  10 O :   -0.115856
  11 C :    0.080426
  12 C :    0.081949
  13 C :   -0.160272
  14 C :   -0.159169
  15 S :    0.463760
  16 C :   -0.198151
  17 C :   -0.035257
  18 C :   -0.048824
  19 C :   -0.049853
  20 C :   -0.036038
  21 C :   -0.199934
  22 S :    0.469015
  23 C :    0.003211
  24 C :   -0.232803
  25 C :    0.003108
  26 C :   -0.232891
  27 C :    0.076224
  28 N :   -0.026805
  29 C :   -0.234970
  30 S :    0.373420
  31 S :    0.362778
  32 C :   -0.235194
  33 N :   -0.027015
  34 C :    0.076403
  35 O :   -0.180194
  36 C :    0.039320
  37 S :   -0.046428
  38 S :   -0.049057
  39 C :    0.038999
  40 O :   -0.181062
  41 C :   -0.062684
  42 C :   -0.063395
  43 C :   -0.074789
  44 C :   -0.062338
  45 H :    0.029993
  46 H :    0.016952
  47 H :    0.018925
  48 H :    0.017532
  49 H :    0.035631
  50 H :    0.033241
  51 H :    0.032911
  52 H :    0.035368
  53 H :    0.055409
  54 H :    0.055186
  55 H :    0.035724
  56 H :    0.027816
  57 H :    0.027398
  58 H :    0.035389
  59 H :    0.029535
  60 H :    0.034300
  61 H :    0.025671
  62 H :    0.030376
  63 H :    0.039032
  64 H :    0.019718
  65 H :    0.025155
  66 H :    0.039816
  67 H :    0.029769
  68 H :    0.025841
  69 H :    0.034034
  70 H :    0.029689

  Mayer bond orders larger than 0.100000
B(  0-C ,  1-C ) :   1.4542 B(  0-C ,  3-C ) :   0.1039 B(  0-C ,  5-C ) :   1.1692
B(  0-C , 13-C ) :   1.1424 B(  1-C ,  2-C ) :   1.1646 B(  1-C ,  9-O ) :   1.1076
B(  2-C ,  3-C ) :   1.4386 B(  2-C , 10-O ) :   1.1117 B(  3-C ,  4-C ) :   1.1785
B(  3-C , 14-C ) :   1.1479 B(  4-C ,  5-C ) :   1.1393 B(  4-C ,  6-N ) :   1.5304
B(  5-C ,  8-N ) :   1.5274 B(  6-N ,  7-S ) :   1.2601 B(  6-N ,  8-N ) :   0.1439
B(  7-S ,  8-N ) :   1.2606 B(  9-O , 12-C ) :   0.8493 B( 10-O , 11-C ) :   0.8636
B( 11-C , 43-C ) :   1.0981 B( 11-C , 45-H ) :   0.9619 B( 11-C , 46-H ) :   0.9475
B( 12-C , 42-C ) :   1.1015 B( 12-C , 47-H ) :   0.9517 B( 12-C , 48-H ) :   0.9505
B( 13-C , 15-S ) :   1.1426 B( 13-C , 18-C ) :   1.4771 B( 14-C , 19-C ) :   1.4761
B( 14-C , 22-S ) :   1.1414 B( 15-S , 16-C ) :   1.0742 B( 16-C , 17-C ) :   1.4315
B( 16-C , 23-C ) :   1.1630 B( 17-C , 18-C ) :   1.2967 B( 17-C , 49-H ) :   1.0039
B( 18-C , 50-H ) :   0.9801 B( 19-C , 20-C ) :   1.2981 B( 19-C , 51-H ) :   0.9786
B( 20-C , 21-C ) :   1.4324 B( 20-C , 52-H ) :   1.0029 B( 21-C , 22-S ) :   1.0730
B( 21-C , 25-C ) :   1.1615 B( 23-C , 24-C ) :   1.7108 B( 23-C , 53-H ) :   0.9646
B( 24-C , 27-C ) :   0.9722 B( 24-C , 30-S ) :   1.0170 B( 25-C , 26-C ) :   1.7159
B( 25-C , 54-H ) :   0.9643 B( 26-C , 31-S ) :   1.0145 B( 26-C , 34-C ) :   0.9697
B( 27-C , 28-N ) :   1.0426 B( 27-C , 35-O ) :   2.1322 B( 28-N , 29-C ) :   1.1529
B( 28-N , 36-C ) :   0.8975 B( 29-C , 30-S ) :   1.0392 B( 29-C , 37-S ) :   1.6891
B( 31-S , 32-C ) :   1.0399 B( 32-C , 33-N ) :   1.1531 B( 32-C , 38-S ) :   1.6838
B( 33-N , 34-C ) :   1.0405 B( 33-N , 39-C ) :   0.8992 B( 34-C , 40-O ) :   2.1312
B( 36-C , 41-C ) :   1.1042 B( 36-C , 55-H ) :   0.9422 B( 36-C , 56-H ) :   0.9435
B( 39-C , 44-C ) :   1.1033 B( 39-C , 57-H ) :   0.9434 B( 39-C , 58-H ) :   0.9421
B( 41-C , 59-H ) :   0.9703 B( 41-C , 60-H ) :   0.9740 B( 41-C , 61-H ) :   0.9679
B( 42-C , 62-H ) :   0.9706 B( 42-C , 63-H ) :   0.9630 B( 42-C , 64-H ) :   0.9682
B( 43-C , 65-H ) :   0.9673 B( 43-C , 66-H ) :   0.9648 B( 43-C , 67-H ) :   0.9638
B( 44-C , 68-H ) :   0.9680 B( 44-C , 69-H ) :   0.9744 B( 44-C , 70-H ) :   0.9702

-----------------------------------------------------------------------------
         ABSORPTION SPECTRUM VIA TRANSITION ELECTRIC DIPOLE MOMENTS
-----------------------------------------------------------------------------
State   Energy  Wavelength   fosc         T2         TX        TY        TZ
        (cm-1)    (nm)                  (au**2)     (au)      (au)      (au)
-----------------------------------------------------------------------------
   0   19704.2    507.5   1.552954336  25.94635  -0.36729   5.06650   0.37682
   1   29180.0    342.7   1.560364195  17.60418  -2.27834   0.05090  -3.52289
   2   30880.0    323.8   0.203231556   2.16665  -0.05509   1.47091   0.00561
   3   32973.3    303.3   0.231959288   2.31592   0.83329   0.01160   1.27335
   4   38620.3    258.9   0.094543944   0.80592   0.24655   0.58154   0.63792
   5   38966.3    256.6   0.047876627   0.40449  -0.45177   0.20004  -0.40047
   6   39576.0    252.7   0.015440343   0.12844  -0.16184   0.30647  -0.09123

Dispersion correction           -0.043079911
FINAL SINGLE POINT ENERGY     -4463.539248552373

DIPOLE MOMENT
-------------
                                X             Y             Z
Electronic contribution:    -18.99705      -1.16954     -20.82289
Nuclear contribution   :     18.19423       1.35471      19.39213
                        -----------------------------------------
Total Dipole Moment    :     -0.80282       0.18518      -1.43075
                        -----------------------------------------
Magnitude (a.u.)       :      1.65102
Magnitude (Debye)      :      4.19655

Rotational constants in cm-1:     0.002909     0.000741     0.000600
Rotational constants in MHz :    87.220721    22.219465    17.980899

                             ****ORCA TERMINATED NORMALLY****
TOTAL RUN TIME: 0 days 0 hours 4 minutes 24 seconds 86 msec
