                         Program Version 4.2.0 -  RELEASE  -
|  1> # ORCA input file
|  2> # SCF done       -198.946035123318          0.000587796002
|  3> ! wb97x-d3 def2-SVP def2/J RIJCOSX Grid4 TightSCF
|  4> %maxcore 5000
|  5> %tddft
|  6>     Mode sTDA
|  7>     Ethresh 5.0
|  8>     maxcore 5000
|  9> end
| 10>
| 11> %pal
| 12>   nprocs 6
| 13>   end
| 14> * xyz 0 1
| 15>    C       -0.48636        -3.26208         0.22958
| 16>    C       -0.75012        -1.96559         0.71199
| 17>    S       -2.46162        -1.59970         0.84409
| 18>    C       -2.81018        -3.18656         0.25349
| 19>    C       -1.67349        -3.95216        -0.02294
| 20>    N       -2.04140        -5.17986        -0.50466
| 21>    C       -0.97392        -6.06282        -0.91965
| 22>    C       -3.42550        -5.24307        -0.52751
| 23>    C       -3.91642        -3.97592        -0.07335
| 24>    C       -5.28812        -3.64429        -0.04468
| 25>    N       -5.85897        -2.50960         0.32978
| 26>    S       -7.45857        -2.65269         0.12437
| 27>    N       -7.48135        -4.16624        -0.44770
| 28>    C       -6.23561        -4.61158        -0.49760
| 29>    C       -5.76287        -5.88063        -0.89413
| 30>    C       -4.38446        -6.23784        -0.88843
| 31>    N       -4.30658        -7.57713        -1.23748
| 32>    C       -3.15111        -8.42058        -1.38823
| 33>    C       -2.70573        -8.49265        -2.85083
| 34>    C       -5.57314        -8.05433        -1.49729
| 35>    C       -6.48474        -7.00829        -1.29319
| 36>    S       -8.14393        -7.38714        -1.56965
| 37>    C       -7.63760        -9.00109        -1.96660
| 38>    C       -6.23777        -9.24114        -1.87668
| 39>    C       -0.38495        -6.83512         0.26136
| 40>    C       -9.87728       -13.45308        -3.48384
| 41>    C       -9.65046       -14.75699        -3.86493
| 42>    C      -10.71346       -15.66040        -4.27156
| 43>    C      -12.06613       -15.43879        -4.24181
| 44>    C      -13.02903       -16.38177        -4.66264
| 45>    N      -13.86673       -17.09663        -4.98624
| 46>    C      -12.72537       -14.27766        -3.78306
| 47>    N      -13.36059       -13.38833        -3.42914
| 48>    C      -10.09321       -16.91167        -4.71041
| 49>    C      -10.63425       -18.07967        -5.22541
| 50>    C       -9.76682       -19.11217        -5.55039
| 51>    F      -10.27023       -20.24604        -6.05209
| 52>    C       -8.38871       -18.99812        -5.36881
| 53>    C       -7.84072       -17.83419        -4.85579
| 54>    C       -8.70547       -16.80627        -4.53652
| 55>    C       -8.36929       -15.47326        -3.98989
| 56>    O       -7.24249       -15.10361        -3.71815
| 57>    N       -5.98871       -10.55182        -2.22966
| 58>    C       -7.20068       -11.13576        -2.51055
| 59>    C       -8.24230       -10.18495        -2.36841
| 60>    C       -4.79898       -11.36146        -2.11349
| 61>    C       -4.62219       -11.89868        -0.69344
| 62>    C       -7.63119       -12.39056        -2.90441
| 63>    C       -9.01065       -12.42941        -3.08339
| 64>    S       -9.77324       -10.85965        -2.73575
| 65>    F       -7.58820       -20.02132        -5.69483
| 66>    C        4.35380        -3.30081         0.10766
| 67>    O        3.55263        -4.16490        -0.20540
| 68>    C        5.82433        -3.40440        -0.00000
| 69>    C        6.57775        -4.45842        -0.47573
| 70>    C        7.95572        -4.31246        -0.47896
| 71>    C        8.54628        -3.13756        -0.01478
| 72>    F        9.87899        -3.02283        -0.03071
| 73>    C        7.78755        -2.07930         0.46470
| 74>    C        6.40876        -2.21716         0.47126
| 75>    C        5.34370        -1.30798         0.90133
| 76>    C        5.54542        -0.06329         1.44183
| 77>    C        4.53696         0.82289         1.87426
| 78>    N        3.77829         1.60058         2.24880
| 79>    C        6.81746         0.51088         1.65025
| 80>    N        7.81948         1.03522         1.84673
| 81>    C        4.08223        -1.97556         0.65908
| 82>    C        2.83872        -1.43275         0.89962
| 83>    F        8.72626        -5.30916        -0.93294
| 84>    C        0.38623        -1.22385         0.99342
| 85>    C        1.55914        -1.95300         0.71172
| 86>    S        1.20345        -3.57269         0.10413
| 87>    C        0.33348         0.18976         1.47141
| 88>    C        0.46564         1.16525         0.29819
| 89>    H       -1.31125        -6.72010        -1.71478
| 90>    H       -0.18565        -5.42891        -1.33822
| 91>    H       -2.35624        -8.06122        -0.74279
| 92>    H       -3.42190        -9.41452        -1.02855
| 93>    H       -3.50311        -8.89793        -3.47021
| 94>    H       -2.47264        -7.50273        -3.23796
| 95>    H       -1.82628        -9.12425        -2.94864
| 96>    H       -1.15329        -7.36559         0.82099
| 97>    H        0.35114        -7.54920        -0.09641
| 98>    H        0.11088        -6.14734         0.94082
| 99>    H      -10.91262       -13.13557        -3.50809
|100>    H      -11.68974       -18.22197        -5.38696
|101>    H       -6.77613       -17.73841        -4.71376
|102>    H       -4.91828       -12.19958        -2.80428
|103>    H       -3.92492       -10.79448        -2.43094
|104>    H       -5.46235       -12.53649        -0.43062
|105>    H       -3.70889       -12.48347        -0.62776
|106>    H       -4.57349       -11.08662         0.02987
|107>    H       -7.01611       -13.25585        -3.06582
|108>    H        6.11654        -5.36479        -0.83403
|109>    H        8.29439        -1.19394         0.81127
|110>    H        2.83597        -0.42699         1.29626
|111>    H       -0.63041         0.34876         1.95870
|112>    H        1.12169         0.38914         2.19877
|113>    H       -0.33918         1.00885        -0.41622
|114>    H        0.41557         2.18685         0.66326
|115>    H        1.41583         1.02824        -0.21274
|116> *
|117>
|118>                          ****END OF INPUT****

CARTESIAN COORDINATES (ANGSTROEM)
---------------------------------
  C     -0.486360   -3.262080    0.229580
  C     -0.750120   -1.965590    0.711990
  S     -2.461620   -1.599700    0.844090
  C     -2.810180   -3.186560    0.253490
  C     -1.673490   -3.952160   -0.022940
  N     -2.041400   -5.179860   -0.504660
  C     -0.973920   -6.062820   -0.919650
  C     -3.425500   -5.243070   -0.527510
  C     -3.916420   -3.975920   -0.073350
  C     -5.288120   -3.644290   -0.044680
  N     -5.858970   -2.509600    0.329780
  S     -7.458570   -2.652690    0.124370
  N     -7.481350   -4.166240   -0.447700
  C     -6.235610   -4.611580   -0.497600
  C     -5.762870   -5.880630   -0.894130
  C     -4.384460   -6.237840   -0.888430
  N     -4.306580   -7.577130   -1.237480
  C     -3.151110   -8.420580   -1.388230
  C     -2.705730   -8.492650   -2.850830
  C     -5.573140   -8.054330   -1.497290
  C     -6.484740   -7.008290   -1.293190
  S     -8.143930   -7.387140   -1.569650
  C     -7.637600   -9.001090   -1.966600
  C     -6.237770   -9.241140   -1.876680
  C     -0.384950   -6.835120    0.261360
  C     -9.877280  -13.453080   -3.483840
  C     -9.650460  -14.756990   -3.864930
  C    -10.713460  -15.660400   -4.271560
  C    -12.066130  -15.438790   -4.241810
  C    -13.029030  -16.381770   -4.662640
  N    -13.866730  -17.096630   -4.986240
  C    -12.725370  -14.277660   -3.783060
  N    -13.360590  -13.388330   -3.429140
  C    -10.093210  -16.911670   -4.710410
  C    -10.634250  -18.079670   -5.225410
  C     -9.766820  -19.112170   -5.550390
  F    -10.270230  -20.246040   -6.052090
  C     -8.388710  -18.998120   -5.368810
  C     -7.840720  -17.834190   -4.855790
  C     -8.705470  -16.806270   -4.536520
  C     -8.369290  -15.473260   -3.989890
  O     -7.242490  -15.103610   -3.718150
  N     -5.988710  -10.551820   -2.229660
  C     -7.200680  -11.135760   -2.510550
  C     -8.242300  -10.184950   -2.368410
  C     -4.798980  -11.361460   -2.113490
  C     -4.622190  -11.898680   -0.693440
  C     -7.631190  -12.390560   -2.904410
  C     -9.010650  -12.429410   -3.083390
  S     -9.773240  -10.859650   -2.735750
  F     -7.588200  -20.021320   -5.694830
  C      4.353800   -3.300810    0.107660
  O      3.552630   -4.164900   -0.205400
  C      5.824330   -3.404400   -0.000000
  C      6.577750   -4.458420   -0.475730
  C      7.955720   -4.312460   -0.478960
  C      8.546280   -3.137560   -0.014780
  F      9.878990   -3.022830   -0.030710
  C      7.787550   -2.079300    0.464700
  C      6.408760   -2.217160    0.471260
  C      5.343700   -1.307980    0.901330
  C      5.545420   -0.063290    1.441830
  C      4.536960    0.822890    1.874260
  N      3.778290    1.600580    2.248800
  C      6.817460    0.510880    1.650250
  N      7.819480    1.035220    1.846730
  C      4.082230   -1.975560    0.659080
  C      2.838720   -1.432750    0.899620
  F      8.726260   -5.309160   -0.932940
  C      0.386230   -1.223850    0.993420
  C      1.559140   -1.953000    0.711720
  S      1.203450   -3.572690    0.104130
  C      0.333480    0.189760    1.471410
  C      0.465640    1.165250    0.298190
  H     -1.311250   -6.720100   -1.714780
  H     -0.185650   -5.428910   -1.338220
  H     -2.356240   -8.061220   -0.742790
  H     -3.421900   -9.414520   -1.028550
  H     -3.503110   -8.897930   -3.470210
  H     -2.472640   -7.502730   -3.237960
  H     -1.826280   -9.124250   -2.948640
  H     -1.153290   -7.365590    0.820990
  H      0.351140   -7.549200   -0.096410
  H      0.110880   -6.147340    0.940820
  H    -10.912620  -13.135570   -3.508090
  H    -11.689740  -18.221970   -5.386960
  H     -6.776130  -17.738410   -4.713760
  H     -4.918280  -12.199580   -2.804280
  H     -3.924920  -10.794480   -2.430940
  H     -5.462350  -12.536490   -0.430620
  H     -3.708890  -12.483470   -0.627760
  H     -4.573490  -11.086620    0.029870
  H     -7.016110  -13.255850   -3.065820
  H      6.116540   -5.364790   -0.834030
  H      8.294390   -1.193940    0.811270
  H      2.835970   -0.426990    1.296260
  H     -0.630410    0.348760    1.958700
  H      1.121690    0.389140    2.198770
  H     -0.339180    1.008850   -0.416220
  H      0.415570    2.186850    0.663260
  H      1.415830    1.028240   -0.212740

 Total Charge           Charge          ....    0
 Multiplicity           Mult            ....    1
 Number of Electrons    NEL             ....  546
 Basis Dimension        Dim             .... 1191

ORBITAL ENERGIES
----------------

  NO   OCC          E(Eh)            E(eV)
   0   2.0000     -89.033154     -2422.7153
   1   2.0000     -88.997990     -2421.7584
   2   2.0000     -88.993796     -2421.6443
   3   2.0000     -88.993224     -2421.6288
   4   2.0000     -88.988232     -2421.4929
   5   2.0000     -24.837553      -675.8642
   6   2.0000     -24.835542      -675.8095
   7   2.0000     -24.833846      -675.7633
   8   2.0000     -24.831459      -675.6984
   9   2.0000     -19.264362      -524.2099
  10   2.0000     -19.259902      -524.0886
  11   2.0000     -14.532013      -395.4362
  12   2.0000     -14.531330      -395.4176
  13   2.0000     -14.522998      -395.1909
  14   2.0000     -14.471768      -393.7968
  15   2.0000     -14.471705      -393.7951
  16   2.0000     -14.459119      -393.4526
  17   2.0000     -14.452271      -393.2663
  18   2.0000     -14.450955      -393.2305
  19   2.0000     -14.447808      -393.1448
  20   2.0000     -10.423166      -283.6288
  21   2.0000     -10.422574      -283.6127
  22   2.0000     -10.419085      -283.5177
  23   2.0000     -10.418343      -283.4975
  24   2.0000     -10.411821      -283.3201
  25   2.0000     -10.409324      -283.2521
  26   2.0000     -10.386462      -282.6300
  27   2.0000     -10.385239      -282.5967
  28   2.0000     -10.380885      -282.4783
  29   2.0000     -10.380455      -282.4665
  30   2.0000     -10.380387      -282.4647
  31   2.0000     -10.380205      -282.4597
  32   2.0000     -10.377669      -282.3907
  33   2.0000     -10.376255      -282.3523
  34   2.0000     -10.375924      -282.3432
  35   2.0000     -10.373573      -282.2793
  36   2.0000     -10.365101      -282.0487
  37   2.0000     -10.364201      -282.0242
  38   2.0000     -10.360584      -281.9258
  39   2.0000     -10.360545      -281.9248
  40   2.0000     -10.359920      -281.9078
  41   2.0000     -10.359280      -281.8903
  42   2.0000     -10.355344      -281.7832
  43   2.0000     -10.355052      -281.7753
  44   2.0000     -10.354877      -281.7705
  45   2.0000     -10.354624      -281.7636
  46   2.0000     -10.354515      -281.7607
  47   2.0000     -10.353855      -281.7427
  48   2.0000     -10.352626      -281.7093
  49   2.0000     -10.352476      -281.7052
  50   2.0000     -10.351956      -281.6910
  51   2.0000     -10.350997      -281.6649
  52   2.0000     -10.349934      -281.6360
  53   2.0000     -10.349461      -281.6231
  54   2.0000     -10.347137      -281.5599
  55   2.0000     -10.346914      -281.5539
  56   2.0000     -10.346829      -281.5515
  57   2.0000     -10.345582      -281.5176
  58   2.0000     -10.344308      -281.4829
  59   2.0000     -10.342235      -281.4265
  60   2.0000     -10.341762      -281.4137
  61   2.0000     -10.341114      -281.3960
  62   2.0000     -10.340089      -281.3681
  63   2.0000     -10.335262      -281.2368
  64   2.0000     -10.332888      -281.1722
  65   2.0000     -10.332688      -281.1667
  66   2.0000     -10.332592      -281.1641
  67   2.0000     -10.331714      -281.1402
  68   2.0000     -10.330229      -281.0998
  69   2.0000     -10.327846      -281.0350
  70   2.0000     -10.323084      -280.9054
  71   2.0000     -10.320829      -280.8440
  72   2.0000     -10.320761      -280.8422
  73   2.0000     -10.299787      -280.2714
  74   2.0000      -8.144294      -221.6175
  75   2.0000      -8.108956      -220.6559
  76   2.0000      -8.107028      -220.6034
  77   2.0000      -8.105854      -220.5715
  78   2.0000      -8.101105      -220.4423
  79   2.0000      -6.106057      -166.1543
  80   2.0000      -6.098222      -165.9411
  81   2.0000      -6.096001      -165.8806
  82   2.0000      -6.069072      -165.1478
  83   2.0000      -6.066842      -165.0872
  84   2.0000      -6.066008      -165.0645
  85   2.0000      -6.064301      -165.0180
  86   2.0000      -6.062791      -164.9769
  87   2.0000      -6.061927      -164.9534
  88   2.0000      -6.061278      -164.9358
  89   2.0000      -6.060699      -164.9200
  90   2.0000      -6.058635      -164.8638
  91   2.0000      -6.057238      -164.8258
  92   2.0000      -6.056867      -164.8157
  93   2.0000      -6.052015      -164.6837
  94   2.0000      -1.366885       -37.1948
  95   2.0000      -1.362871       -37.0856
  96   2.0000      -1.351793       -36.7842
  97   2.0000      -1.347807       -36.6757
  98   2.0000      -1.182156       -32.1681
  99   2.0000      -1.176395       -32.0113
 100   2.0000      -1.161738       -31.6125
 101   2.0000      -1.153918       -31.3997
 102   2.0000      -1.151577       -31.3360
 103   2.0000      -1.142774       -31.0964
 104   2.0000      -1.065009       -28.9804
 105   2.0000      -1.059637       -28.8342
 106   2.0000      -1.055780       -28.7292
 107   2.0000      -1.046913       -28.4880
 108   2.0000      -1.041101       -28.3298
 109   2.0000      -1.036199       -28.1964
 110   2.0000      -1.031056       -28.0565
 111   2.0000      -1.029439       -28.0124
 112   2.0000      -1.022965       -27.8363
 113   2.0000      -1.014256       -27.5993
 114   2.0000      -1.005876       -27.3713
 115   2.0000      -1.001402       -27.2495
 116   2.0000      -0.995324       -27.0841
 117   2.0000      -0.990443       -26.9513
 118   2.0000      -0.962960       -26.2035
 119   2.0000      -0.949808       -25.8456
 120   2.0000      -0.945639       -25.7322
 121   2.0000      -0.940078       -25.5808
 122   2.0000      -0.939856       -25.5748
 123   2.0000      -0.937333       -25.5061
 124   2.0000      -0.924522       -25.1575
 125   2.0000      -0.922391       -25.0995
 126   2.0000      -0.916733       -24.9456
 127   2.0000      -0.912266       -24.8240
 128   2.0000      -0.903072       -24.5738
 129   2.0000      -0.896335       -24.3905
 130   2.0000      -0.887329       -24.1454
 131   2.0000      -0.878951       -23.9175
 132   2.0000      -0.871134       -23.7048
 133   2.0000      -0.866566       -23.5804
 134   2.0000      -0.857530       -23.3346
 135   2.0000      -0.848756       -23.0958
 136   2.0000      -0.842108       -22.9149
 137   2.0000      -0.832531       -22.6543
 138   2.0000      -0.816603       -22.2209
 139   2.0000      -0.811795       -22.0901
 140   2.0000      -0.807225       -21.9657
 141   2.0000      -0.802584       -21.8394
 142   2.0000      -0.794755       -21.6264
 143   2.0000      -0.787804       -21.4372
 144   2.0000      -0.779981       -21.2244
 145   2.0000      -0.769671       -20.9438
 146   2.0000      -0.762402       -20.7460
 147   2.0000      -0.756870       -20.5955
 148   2.0000      -0.750606       -20.4250
 149   2.0000      -0.746489       -20.3130
 150   2.0000      -0.744367       -20.2553
 151   2.0000      -0.741558       -20.1788
 152   2.0000      -0.732564       -19.9341
 153   2.0000      -0.727273       -19.7901
 154   2.0000      -0.713339       -19.4109
 155   2.0000      -0.706022       -19.2118
 156   2.0000      -0.700334       -19.0570
 157   2.0000      -0.699368       -19.0308
 158   2.0000      -0.697479       -18.9794
 159   2.0000      -0.689508       -18.7625
 160   2.0000      -0.686238       -18.6735
 161   2.0000      -0.683079       -18.5875
 162   2.0000      -0.678468       -18.4621
 163   2.0000      -0.675215       -18.3735
 164   2.0000      -0.667159       -18.1543
 165   2.0000      -0.662654       -18.0317
 166   2.0000      -0.656501       -17.8643
 167   2.0000      -0.653735       -17.7890
 168   2.0000      -0.650364       -17.6973
 169   2.0000      -0.646271       -17.5859
 170   2.0000      -0.635522       -17.2934
 171   2.0000      -0.631583       -17.1863
 172   2.0000      -0.630992       -17.1702
 173   2.0000      -0.628463       -17.1013
 174   2.0000      -0.627461       -17.0741
 175   2.0000      -0.625251       -17.0140
 176   2.0000      -0.623427       -16.9643
 177   2.0000      -0.621368       -16.9083
 178   2.0000      -0.618505       -16.8304
 179   2.0000      -0.613723       -16.7003
 180   2.0000      -0.603628       -16.4256
 181   2.0000      -0.598791       -16.2939
 182   2.0000      -0.594691       -16.1824
 183   2.0000      -0.592586       -16.1251
 184   2.0000      -0.588417       -16.0116
 185   2.0000      -0.587577       -15.9888
 186   2.0000      -0.586332       -15.9549
 187   2.0000      -0.586195       -15.9512
 188   2.0000      -0.582400       -15.8479
 189   2.0000      -0.581684       -15.8284
 190   2.0000      -0.580999       -15.8098
 191   2.0000      -0.579353       -15.7650
 192   2.0000      -0.577280       -15.7086
 193   2.0000      -0.575167       -15.6511
 194   2.0000      -0.572270       -15.5723
 195   2.0000      -0.570161       -15.5149
 196   2.0000      -0.569575       -15.4989
 197   2.0000      -0.565440       -15.3864
 198   2.0000      -0.562924       -15.3180
 199   2.0000      -0.560391       -15.2490
 200   2.0000      -0.554964       -15.1013
 201   2.0000      -0.551576       -15.0092
 202   2.0000      -0.549193       -14.9443
 203   2.0000      -0.547286       -14.8924
 204   2.0000      -0.539961       -14.6931
 205   2.0000      -0.538824       -14.6621
 206   2.0000      -0.537804       -14.6344
 207   2.0000      -0.535762       -14.5788
 208   2.0000      -0.533932       -14.5290
 209   2.0000      -0.533137       -14.5074
 210   2.0000      -0.531345       -14.4586
 211   2.0000      -0.530331       -14.4310
 212   2.0000      -0.529061       -14.3965
 213   2.0000      -0.525973       -14.3125
 214   2.0000      -0.522852       -14.2275
 215   2.0000      -0.519439       -14.1347
 216   2.0000      -0.517240       -14.0748
 217   2.0000      -0.516352       -14.0507
 218   2.0000      -0.515344       -14.0232
 219   2.0000      -0.514579       -14.0024
 220   2.0000      -0.510730       -13.8977
 221   2.0000      -0.502810       -13.6822
 222   2.0000      -0.498800       -13.5730
 223   2.0000      -0.497845       -13.5471
 224   2.0000      -0.496166       -13.5014
 225   2.0000      -0.493596       -13.4314
 226   2.0000      -0.493219       -13.4212
 227   2.0000      -0.491524       -13.3750
 228   2.0000      -0.490736       -13.3536
 229   2.0000      -0.489798       -13.3281
 230   2.0000      -0.489232       -13.3127
 231   2.0000      -0.488298       -13.2873
 232   2.0000      -0.484876       -13.1942
 233   2.0000      -0.482730       -13.1357
 234   2.0000      -0.482096       -13.1185
 235   2.0000      -0.481501       -13.1023
 236   2.0000      -0.476784       -12.9740
 237   2.0000      -0.471102       -12.8193
 238   2.0000      -0.469756       -12.7827
 239   2.0000      -0.468930       -12.7602
 240   2.0000      -0.466811       -12.7026
 241   2.0000      -0.461771       -12.5654
 242   2.0000      -0.460853       -12.5404
 243   2.0000      -0.460839       -12.5401
 244   2.0000      -0.458781       -12.4841
 245   2.0000      -0.455538       -12.3958
 246   2.0000      -0.453796       -12.3484
 247   2.0000      -0.449689       -12.2366
 248   2.0000      -0.448755       -12.2112
 249   2.0000      -0.444928       -12.1071
 250   2.0000      -0.441232       -12.0065
 251   2.0000      -0.440110       -11.9760
 252   2.0000      -0.437036       -11.8924
 253   2.0000      -0.433107       -11.7854
 254   2.0000      -0.427821       -11.6416
 255   2.0000      -0.410873       -11.1804
 256   2.0000      -0.406254       -11.0547
 257   2.0000      -0.400106       -10.8874
 258   2.0000      -0.387134       -10.5344
 259   2.0000      -0.385045       -10.4776
 260   2.0000      -0.383226       -10.4281
 261   2.0000      -0.378126       -10.2893
 262   2.0000      -0.375267       -10.2115
 263   2.0000      -0.372915       -10.1475
 264   2.0000      -0.363780        -9.8990
 265   2.0000      -0.353610        -9.6222
 266   2.0000      -0.347371        -9.4524
 267   2.0000      -0.341739        -9.2992
 268   2.0000      -0.335064        -9.1176
 269   2.0000      -0.317815        -8.6482
 270   2.0000      -0.304596        -8.2885
 271   2.0000      -0.300736        -8.1834
 272   2.0000      -0.265518        -7.2251
 273   0.0000      -0.079011        -2.1500
 274   0.0000      -0.067836        -1.8459
 275   0.0000      -0.045661        -1.2425
 276   0.0000      -0.040508        -1.1023
 277   0.0000      -0.019469        -0.5298

MULLIKEN ATOMIC CHARGES
-----------------------
   0 C :   -0.015776
   1 C :   -0.091678
   2 S :    0.207468
   3 C :   -0.040242
   4 C :    0.029565
   5 N :   -0.251947
   6 C :    0.053030
   7 C :    0.122612
   8 C :   -0.139825
   9 C :    0.026104
  10 N :   -0.302010
  11 S :    0.483583
  12 N :   -0.299001
  13 C :    0.014938
  14 C :   -0.099245
  15 C :    0.105923
  16 N :   -0.252113
  17 C :    0.076979
  18 C :   -0.046436
  19 C :    0.048641
  20 C :   -0.087684
  21 S :    0.228657
  22 C :   -0.163169
  23 C :    0.117971
  24 C :   -0.037429
  25 C :    0.071151
  26 C :   -0.143020
  27 C :    0.282730
  28 C :   -0.384983
  29 C :   -0.132741
  30 N :    0.105595
  31 C :   -0.124324
  32 N :    0.105719
  33 C :    0.029385
  34 C :   -0.090734
  35 C :    0.246617
  36 F :   -0.180934
  37 C :    0.243661
  38 C :   -0.102083
  39 C :   -0.049972
  40 C :    0.225875
  41 O :   -0.201754
  42 N :   -0.238220
  43 C :    0.139752
  44 C :   -0.086775
  45 C :    0.051381
  46 C :   -0.046335
  47 C :   -0.034949
  48 C :   -0.158171
  49 S :    0.169100
  50 F :   -0.185090
  51 C :    0.231115
  52 O :   -0.208516
  53 C :   -0.054843
  54 C :   -0.095697
  55 C :    0.242447
  56 C :    0.243104
  57 F :   -0.179638
  58 C :   -0.084737
  59 C :    0.023874
  60 C :    0.293168
  61 C :   -0.384422
  62 C :   -0.117172
  63 N :    0.093730
  64 C :   -0.129289
  65 N :    0.105988
  66 C :   -0.158388
  67 C :    0.010184
  68 F :   -0.184660
  69 C :   -0.082721
  70 C :   -0.109248
  71 S :    0.185146
  72 C :    0.002638
  73 C :   -0.013586
  74 H :    0.023383
  75 H :    0.063162
  76 H :    0.019836
  77 H :    0.025622
  78 H :    0.058134
  79 H :    0.062103
  80 H :    0.054807
  81 H :    0.055529
  82 H :    0.054369
  83 H :    0.052985
  84 H :    0.023830
  85 H :    0.045820
  86 H :    0.037508
  87 H :    0.064780
  88 H :    0.030639
  89 H :    0.056829
  90 H :    0.050954
  91 H :    0.052377
  92 H :    0.034035
  93 H :    0.036838
  94 H :    0.044991
  95 H :   -0.008276
  96 H :    0.041722
  97 H :    0.062947
  98 H :    0.037773
  99 H :    0.057019
 100 H :    0.032006
Sum of atomic charges:   -0.0000000

LOEWDIN ATOMIC CHARGES
----------------------
   0 C :   -0.190046
   1 C :   -0.199017
   2 S :    0.418950
   3 C :   -0.162577
   4 C :   -0.048613
   5 N :    0.038146
   6 C :    0.035285
   7 C :    0.018704
   8 C :   -0.084584
   9 C :   -0.053797
  10 N :   -0.288171
  11 S :    0.601695
  12 N :   -0.286513
  13 C :   -0.054233
  14 C :   -0.080037
  15 C :    0.007071
  16 N :    0.037222
  17 C :    0.034863
  18 C :   -0.068312
  19 C :   -0.041056
  20 C :   -0.172285
  21 S :    0.429634
  22 C :   -0.220641
  23 C :   -0.007110
  24 C :   -0.065487
  25 C :    0.059043
  26 C :   -0.126350
  27 C :    0.080253
  28 C :   -0.149816
  29 C :   -0.013894
  30 N :   -0.055632
  31 C :   -0.019901
  32 N :   -0.051069
  33 C :   -0.019073
  34 C :   -0.017944
  35 C :    0.077189
  36 F :   -0.048344
  37 C :    0.073490
  38 C :   -0.009475
  39 C :   -0.050121
  40 C :    0.098137
  41 O :   -0.160558
  42 N :    0.023747
  43 C :   -0.029326
  44 C :   -0.191459
  45 C :    0.038462
  46 C :   -0.064623
  47 C :   -0.017535
  48 C :   -0.183873
  49 S :    0.431583
  50 F :   -0.051256
  51 C :    0.092392
  52 O :   -0.175067
  53 C :   -0.049720
  54 C :   -0.008350
  55 C :    0.073890
  56 C :    0.077240
  57 F :   -0.047157
  58 C :   -0.016989
  59 C :   -0.018564
  60 C :    0.082409
  61 C :   -0.153456
  62 C :   -0.012215
  63 N :   -0.059521
  64 C :   -0.015178
  65 N :   -0.054822
  66 C :   -0.136576
  67 C :    0.067544
  68 F :   -0.050598
  69 C :   -0.004764
  70 C :   -0.197536
  71 S :    0.471555
  72 C :   -0.034302
  73 C :   -0.044044
  74 H :    0.026524
  75 H :    0.033438
  76 H :    0.029427
  77 H :    0.029570
  78 H :    0.033972
  79 H :    0.033007
  80 H :    0.036004
  81 H :    0.027708
  82 H :    0.037719
  83 H :    0.030768
  84 H :    0.045078
  85 H :    0.054013
  86 H :    0.053469
  87 H :    0.041328
  88 H :    0.024764
  89 H :    0.037488
  90 H :    0.035456
  91 H :    0.027315
  92 H :    0.034588
  93 H :    0.053783
  94 H :    0.054233
  95 H :    0.047686
  96 H :    0.035191
  97 H :    0.040317
  98 H :    0.028544
  99 H :    0.036090
 100 H :    0.025601

  Mayer bond orders larger than 0.100000
B(  0-C ,  1-C ) :   1.3992 B(  0-C ,  4-C ) :   1.3145 B(  0-C , 71-S ) :   1.0360
B(  1-C ,  2-S ) :   1.0180 B(  1-C , 69-C ) :   1.4630 B(  2-S ,  3-C ) :   1.0221
B(  3-C ,  4-C ) :   1.4093 B(  3-C ,  8-C ) :   1.4028 B(  4-C ,  5-N ) :   1.1374
B(  5-N ,  6-C ) :   0.9289 B(  5-N ,  7-C ) :   1.1718 B(  6-C , 24-C ) :   1.0866
B(  6-C , 74-H ) :   0.9515 B(  6-C , 75-H ) :   0.9425 B(  7-C ,  8-C ) :   1.3817
B(  7-C , 15-C ) :   1.1200 B(  8-C ,  9-C ) :   1.1383 B(  9-C , 10-N ) :   1.6133
B(  9-C , 13-C ) :   1.1402 B( 10-N , 11-S ) :   1.2304 B( 10-N , 12-N ) :   0.1316
B( 11-S , 12-N ) :   1.2310 B( 12-N , 13-C ) :   1.6126 B( 13-C , 14-C ) :   1.1276
B( 14-C , 15-C ) :   1.3907 B( 14-C , 20-C ) :   1.4087 B( 15-C , 16-N ) :   1.1519
B( 16-N , 17-C ) :   0.9478 B( 16-N , 19-C ) :   1.1460 B( 17-C , 18-C ) :   1.0912
B( 17-C , 76-H ) :   0.9431 B( 17-C , 77-H ) :   0.9422 B( 18-C , 78-H ) :   0.9533
B( 18-C , 79-H ) :   0.9523 B( 18-C , 80-H ) :   0.9696 B( 19-C , 20-C ) :   1.3985
B( 19-C , 23-C ) :   1.2206 B( 20-C , 21-S ) :   1.0357 B( 21-S , 22-C ) :   0.9935
B( 22-C , 23-C ) :   1.4081 B( 22-C , 44-C ) :   1.4815 B( 23-C , 42-N ) :   1.1675
B( 24-C , 81-H ) :   0.9603 B( 24-C , 82-H ) :   0.9708 B( 24-C , 83-H ) :   0.9551
B( 25-C , 26-C ) :   1.5549 B( 25-C , 48-C ) :   1.3008 B( 25-C , 84-H ) :   0.9100
B( 26-C , 27-C ) :   1.1108 B( 26-C , 40-C ) :   0.9671 B( 27-C , 28-C ) :   1.6283
B( 27-C , 33-C ) :   1.0080 B( 28-C , 29-C ) :   1.1339 B( 28-C , 31-C ) :   1.1265
B( 29-C , 30-N ) :   2.9701 B( 31-C , 32-N ) :   2.9572 B( 33-C , 34-C ) :   1.3320
B( 33-C , 39-C ) :   1.3476 B( 34-C , 35-C ) :   1.3493 B( 34-C , 85-H ) :   0.9894
B( 35-C , 36-F ) :   1.1124 B( 35-C , 37-C ) :   1.2944 B( 37-C , 38-C ) :   1.3280
B( 37-C , 50-F ) :   1.0995 B( 38-C , 39-C ) :   1.3405 B( 38-C , 86-H ) :   1.0164
B( 39-C , 40-C ) :   0.9704 B( 40-C , 41-O ) :   2.1176 B( 41-O , 92-H ) :   0.1004
B( 42-N , 43-C ) :   1.0973 B( 42-N , 45-C ) :   0.9463 B( 43-C , 44-C ) :   1.3280
B( 43-C , 47-C ) :   1.2778 B( 44-C , 49-S ) :   1.0741 B( 45-C , 46-C ) :   1.0895
B( 45-C , 87-H ) :   0.9456 B( 45-C , 88-H ) :   0.9525 B( 46-C , 89-H ) :   0.9629
B( 46-C , 90-H ) :   0.9718 B( 46-C , 91-H ) :   0.9648 B( 47-C , 48-C ) :   1.3838
B( 47-C , 92-H ) :   0.9773 B( 48-C , 49-S ) :   1.0597 B( 51-C , 52-O ) :   2.1168
B( 51-C , 53-C ) :   0.9697 B( 51-C , 66-C ) :   0.9868 B( 53-C , 54-C ) :   1.3445
B( 53-C , 59-C ) :   1.3452 B( 54-C , 55-C ) :   1.3266 B( 54-C , 93-H ) :   1.0153
B( 55-C , 56-C ) :   1.2969 B( 55-C , 68-F ) :   1.0992 B( 56-C , 57-F ) :   1.1148
B( 56-C , 58-C ) :   1.3473 B( 58-C , 59-C ) :   1.3384 B( 58-C , 94-H ) :   0.9882
B( 59-C , 60-C ) :   1.0110 B( 60-C , 61-C ) :   1.6253 B( 60-C , 66-C ) :   1.1126
B( 61-C , 62-C ) :   1.1407 B( 61-C , 64-C ) :   1.1297 B( 62-C , 63-N ) :   2.9516
B( 64-C , 65-N ) :   2.9715 B( 66-C , 67-C ) :   1.5014 B( 67-C , 70-C ) :   1.3390
B( 67-C , 95-H ) :   0.9249 B( 69-C , 70-C ) :   1.3727 B( 69-C , 72-C ) :   1.0556
B( 70-C , 71-S ) :   1.0347 B( 72-C , 73-C ) :   1.0868 B( 72-C , 96-H ) :   0.9322
B( 72-C , 97-H ) :   0.9132 B( 73-C , 98-H ) :   0.9703 B( 73-C , 99-H ) :   0.9712
B( 73-C ,100-H ) :   0.9732

-----------------------------------------------------------------------------
         ABSORPTION SPECTRUM VIA TRANSITION ELECTRIC DIPOLE MOMENTS
-----------------------------------------------------------------------------
State   Energy  Wavelength   fosc         T2         TX        TY        TZ
        (cm-1)    (nm)                  (au**2)     (au)      (au)      (au)
-----------------------------------------------------------------------------
   0   19351.5    516.8   3.848700653  65.47507  -5.97929  -5.12499  -1.85950
   1   25096.4    398.5   0.508835324   6.67485   1.52759  -1.97555  -0.66220
   2   28422.3    351.8   0.011524306   0.13348   0.28958   0.20147   0.09506
   3   28685.7    348.6   0.015985737   0.18346   0.34150  -0.20244  -0.16078
   4   29388.7    340.3   0.054485316   0.61034   0.67814   0.33530   0.19503
   5   29479.5    339.2   0.393009234   4.38893   1.13860  -1.69739  -0.45979
   6   31210.3    320.4   0.001422431   0.01500   0.03823   0.11491  -0.01837
   7   31554.7    316.9   0.091943278   0.95925  -0.95397  -0.21846  -0.03822
   8   32232.3    310.2   0.012529784   0.12798  -0.05181  -0.33326  -0.11929
   9   32280.4    309.8   0.012243363   0.12486   0.03267   0.32606   0.13221
  10   34509.9    289.8   0.123801030   1.18102   0.98083  -0.46493  -0.05314
  11   34662.6    288.5   0.267390353   2.53957  -1.32911   0.84650   0.23763
  12   36484.0    274.1   0.001499558   0.01353  -0.09502  -0.03752   0.05563
  13   36929.2    270.8   1.172462753  10.45211   1.82916  -2.47171  -0.99847
  14   37413.2    267.3   0.109005176   0.95918   0.07081  -0.94082  -0.26270
  15   38109.7    262.4   0.098636112   0.85207   0.92064  -0.06022   0.02942
  16   38386.3    260.5   0.029181125   0.25027  -0.26163   0.40498   0.13345
  17   39573.2    252.7   0.017165116   0.14280  -0.11859  -0.31266  -0.17600
  18   39797.9    251.3   0.529259948   4.37809   2.01387  -0.56610  -0.04429
  19   40082.2    249.5   0.713139820   5.85731  -0.79111   2.16513   0.73733

Dispersion correction           -0.065179289
FINAL SINGLE POINT ENERGY     -5103.649371121708

DIPOLE MOMENT
-------------
                                X             Y             Z
Electronic contribution:    -15.08944     -21.51757     -12.80762
Nuclear contribution   :     17.76876      20.48126      12.58848
                        -----------------------------------------
Total Dipole Moment    :      2.67932      -1.03632      -0.21914
                        -----------------------------------------
Magnitude (a.u.)       :      2.88110
Magnitude (Debye)      :      7.32317

Rotational constants in cm-1:     0.001535     0.000223     0.000195
Rotational constants in MHz :    46.026483     6.677842     5.855883

                             ****ORCA TERMINATED NORMALLY****
TOTAL RUN TIME: 0 days 0 hours 13 minutes 3 seconds 531 msec
