                         Program Version 4.2.0 -  RELEASE  -
|  1> # ORCA input file
|  2> # SCF done       -225.093790934621          0.000927765135
|  3> ! wb97x-d3 def2-SVP def2/J RIJCOSX Grid4 TightSCF
|  4> %maxcore 5000
|  5> %tddft
|  6>     Mode sTDA
|  7>     Ethresh 5.0
|  8>     maxcore 5000
|  9> end
| 10>
| 11> %pal
| 12>   nprocs 6
| 13>   end
| 14> * xyz 0 1
| 15>    C        3.84030        -1.73507        -9.60712
| 16>    O        2.97086        -2.31304       -10.22760
| 17>    C        5.18662        -1.41511       -10.13229
| 18>    C        5.71092        -1.72817       -11.37070
| 19>    C        7.01166        -1.33281       -11.63588
| 20>    C        7.75313        -0.64353       -10.67602
| 21>    C        7.22355        -0.32609        -9.43410
| 22>    C        5.92173        -0.71777        -9.16188
| 23>    C        5.08156        -0.54226        -7.97684
| 24>    C        5.44623         0.17445        -6.86667
| 25>    C        4.65014         0.42874        -5.72874
| 26>    N        4.07980         0.70299        -4.77004
| 27>    C        6.70101         0.80264        -6.70983
| 28>    N        7.69965         1.33228        -6.51151
| 29>    C        3.81864        -1.21594        -8.22650
| 30>    C        2.84476        -1.36733        -7.26752
| 31>    C      -18.06269       -14.21240        -5.45767
| 32>    O      -17.27388       -13.62412        -4.74023
| 33>    C      -19.15824       -15.09530        -5.00569
| 34>    C      -19.50641       -15.43772        -3.71467
| 35>    C      -20.58397       -16.29263        -3.54624
| 36>    C      -21.28241       -16.78040        -4.65062
| 37>    C      -20.93099       -16.43527        -5.94777
| 38>    C      -19.85374       -15.58174        -6.12514
| 39>    C      -19.23661       -15.03664        -7.33682
| 40>    C      -19.65582       -15.29677        -8.61626
| 41>    C      -19.07762       -14.78261        -9.79571
| 42>    N      -18.67033       -14.40588       -10.80192
| 43>    C      -20.74614       -16.13360        -8.93672
| 44>    N      -21.62323       -16.79673        -9.26601
| 45>    C      -18.13245       -14.19823        -6.91924
| 46>    C      -17.28256       -13.51025        -7.75553
| 47>    C      -16.18893       -12.69039        -7.46850
| 48>    S      -15.57036       -12.27763        -5.87206
| 49>    C      -14.34318       -11.33845        -6.59807
| 50>    C      -14.39200       -11.33151        -8.00589
| 51>    C      -15.42886       -12.08847        -8.48920
| 52>    C      -13.24916       -10.54618        -6.19153
| 53>    C      -12.59751       -10.03451        -7.31664
| 54>    C      -13.27572       -10.49442        -8.58292
| 55>    S      -12.51236       -10.05911        -4.71988
| 56>    C      -11.31163        -9.15981        -5.62052
| 57>    C      -11.50098        -9.24937        -6.99119
| 58>    C      -10.28722        -8.45835        -4.93414
| 59>    C       -3.92341        -4.52512        -5.58973
| 60>    S       -2.73664        -3.61026        -4.68813
| 61>    C       -1.81688        -3.40101        -6.12180
| 62>    C       -2.40899        -3.99084        -7.24262
| 63>    C       -3.59931        -4.63583        -6.93286
| 64>    C       -0.57860        -2.83838        -6.49038
| 65>    C       -0.36800        -3.06955        -7.86050
| 66>    C       -1.55213        -3.78673        -8.46865
| 67>    S        0.71617        -2.01290        -5.75330
| 68>    C        1.58396        -1.97679        -7.29732
| 69>    C        0.83941        -2.58272        -8.31184
| 70>    C       -2.21597        -2.82958        -9.48477
| 71>    C       -3.53478        -3.32132       -10.06536
| 72>    C       -1.14708        -5.11765        -9.12127
| 73>    C       -0.37846        -6.02922        -8.17181
| 74>    C      -13.81776        -9.30764        -9.40106
| 75>    C      -14.75690        -8.41138        -8.60332
| 76>    C      -12.32958       -11.33931        -9.45685
| 77>    C      -11.73567       -12.53114        -8.71612
| 78>    F      -22.31940       -17.60360        -4.45950
| 79>    F      -20.95787       -16.65342        -2.31283
| 80>    F        7.56305        -1.61658       -12.82240
| 81>    F        9.00934        -0.27838       -10.95589
| 82>    S       -9.06930        -7.56086        -5.80188
| 83>    C       -8.30235        -7.08240        -4.31772
| 84>    C       -8.96102        -7.60317        -3.21325
| 85>    C      -10.07516        -8.38199        -3.58011
| 86>    C       -7.12773        -6.30891        -4.31631
| 87>    C       -6.54633        -5.66764        -3.23174
| 88>    C       -7.00548        -5.55160        -1.83848
| 89>    N       -7.86486        -6.48133        -1.26440
| 90>    C       -8.61407        -7.52928        -1.78565
| 91>    S       -6.22653        -6.03681        -5.77697
| 92>    C       -5.04832        -5.07545        -4.92279
| 93>    C       -5.37641        -4.97247        -3.59425
| 94>    C       -7.93465        -6.38316         0.20167
| 95>    C       -6.79910        -7.15612         0.85814
| 96>    O       -9.07381        -8.36338        -1.03140
| 97>    O       -6.55918        -4.65039        -1.15675
| 98>    H        5.13285        -2.26240       -12.10769
| 99>    H        7.84059         0.20628        -8.72954
|100>    H        3.08855        -0.96318        -6.29222
|101>    H      -18.96291       -15.05728        -2.86458
|102>    H      -21.50425       -16.84109        -6.76480
|103>    H      -17.46745       -13.60981        -8.81815
|104>    H      -15.66654       -12.23358        -9.52826
|105>    H      -10.85219        -8.75685        -7.69362
|106>    H       -4.21586        -5.18418        -7.62259
|107>    H        1.20745        -2.65445        -9.31850
|108>    H       -2.38516        -1.87219        -8.98555
|109>    H       -1.50250        -2.66058       -10.29336
|110>    H       -4.27744        -3.45522        -9.28358
|111>    H       -3.91395        -2.58378       -10.76885
|112>    H       -3.40908        -4.25982       -10.59795
|113>    H       -2.04747        -5.63251        -9.45765
|114>    H       -0.52944        -4.89891        -9.99384
|115>    H       -0.97212        -6.25769        -7.28922
|116>    H       -0.13457        -6.96340        -8.67139
|117>    H        0.54936        -5.56127        -7.85164
|118>    H      -12.97027        -8.71934        -9.75826
|119>    H      -14.34481        -9.70293       -10.27123
|120>    H      -14.24586        -7.98212        -7.74459
|121>    H      -15.11487        -7.59865        -9.23023
|122>    H      -15.61694        -8.97300        -8.24636
|123>    H      -12.88903       -11.69328       -10.32457
|124>    H      -11.52359       -10.69564        -9.81451
|125>    H      -12.51980       -13.19469        -8.35931
|126>    H      -11.08674       -13.09502        -9.38142
|127>    H      -11.14815       -12.20263        -7.86191
|128>    H      -10.69593        -8.87444        -2.85318
|129>    H       -4.79865        -4.41165        -2.88142
|130>    H       -7.87551        -5.32547         0.46051
|131>    H       -8.89626        -6.79108         0.51349
|132>    H       -5.83814        -6.75535         0.54381
|133>    H       -6.87732        -7.06729         1.93780
|134>    H       -6.85598        -8.20787         0.58830
|135> *
|136>
|137>                          ****END OF INPUT****

CARTESIAN COORDINATES (ANGSTROEM)
---------------------------------
  C      3.840300   -1.735070   -9.607120
  O      2.970860   -2.313040  -10.227600
  C      5.186620   -1.415110  -10.132290
  C      5.710920   -1.728170  -11.370700
  C      7.011660   -1.332810  -11.635880
  C      7.753130   -0.643530  -10.676020
  C      7.223550   -0.326090   -9.434100
  C      5.921730   -0.717770   -9.161880
  C      5.081560   -0.542260   -7.976840
  C      5.446230    0.174450   -6.866670
  C      4.650140    0.428740   -5.728740
  N      4.079800    0.702990   -4.770040
  C      6.701010    0.802640   -6.709830
  N      7.699650    1.332280   -6.511510
  C      3.818640   -1.215940   -8.226500
  C      2.844760   -1.367330   -7.267520
  C    -18.062690  -14.212400   -5.457670
  O    -17.273880  -13.624120   -4.740230
  C    -19.158240  -15.095300   -5.005690
  C    -19.506410  -15.437720   -3.714670
  C    -20.583970  -16.292630   -3.546240
  C    -21.282410  -16.780400   -4.650620
  C    -20.930990  -16.435270   -5.947770
  C    -19.853740  -15.581740   -6.125140
  C    -19.236610  -15.036640   -7.336820
  C    -19.655820  -15.296770   -8.616260
  C    -19.077620  -14.782610   -9.795710
  N    -18.670330  -14.405880  -10.801920
  C    -20.746140  -16.133600   -8.936720
  N    -21.623230  -16.796730   -9.266010
  C    -18.132450  -14.198230   -6.919240
  C    -17.282560  -13.510250   -7.755530
  C    -16.188930  -12.690390   -7.468500
  S    -15.570360  -12.277630   -5.872060
  C    -14.343180  -11.338450   -6.598070
  C    -14.392000  -11.331510   -8.005890
  C    -15.428860  -12.088470   -8.489200
  C    -13.249160  -10.546180   -6.191530
  C    -12.597510  -10.034510   -7.316640
  C    -13.275720  -10.494420   -8.582920
  S    -12.512360  -10.059110   -4.719880
  C    -11.311630   -9.159810   -5.620520
  C    -11.500980   -9.249370   -6.991190
  C    -10.287220   -8.458350   -4.934140
  C     -3.923410   -4.525120   -5.589730
  S     -2.736640   -3.610260   -4.688130
  C     -1.816880   -3.401010   -6.121800
  C     -2.408990   -3.990840   -7.242620
  C     -3.599310   -4.635830   -6.932860
  C     -0.578600   -2.838380   -6.490380
  C     -0.368000   -3.069550   -7.860500
  C     -1.552130   -3.786730   -8.468650
  S      0.716170   -2.012900   -5.753300
  C      1.583960   -1.976790   -7.297320
  C      0.839410   -2.582720   -8.311840
  C     -2.215970   -2.829580   -9.484770
  C     -3.534780   -3.321320  -10.065360
  C     -1.147080   -5.117650   -9.121270
  C     -0.378460   -6.029220   -8.171810
  C    -13.817760   -9.307640   -9.401060
  C    -14.756900   -8.411380   -8.603320
  C    -12.329580  -11.339310   -9.456850
  C    -11.735670  -12.531140   -8.716120
  F    -22.319400  -17.603600   -4.459500
  F    -20.957870  -16.653420   -2.312830
  F      7.563050   -1.616580  -12.822400
  F      9.009340   -0.278380  -10.955890
  S     -9.069300   -7.560860   -5.801880
  C     -8.302350   -7.082400   -4.317720
  C     -8.961020   -7.603170   -3.213250
  C    -10.075160   -8.381990   -3.580110
  C     -7.127730   -6.308910   -4.316310
  C     -6.546330   -5.667640   -3.231740
  C     -7.005480   -5.551600   -1.838480
  N     -7.864860   -6.481330   -1.264400
  C     -8.614070   -7.529280   -1.785650
  S     -6.226530   -6.036810   -5.776970
  C     -5.048320   -5.075450   -4.922790
  C     -5.376410   -4.972470   -3.594250
  C     -7.934650   -6.383160    0.201670
  C     -6.799100   -7.156120    0.858140
  O     -9.073810   -8.363380   -1.031400
  O     -6.559180   -4.650390   -1.156750
  H      5.132850   -2.262400  -12.107690
  H      7.840590    0.206280   -8.729540
  H      3.088550   -0.963180   -6.292220
  H    -18.962910  -15.057280   -2.864580
  H    -21.504250  -16.841090   -6.764800
  H    -17.467450  -13.609810   -8.818150
  H    -15.666540  -12.233580   -9.528260
  H    -10.852190   -8.756850   -7.693620
  H     -4.215860   -5.184180   -7.622590
  H      1.207450   -2.654450   -9.318500
  H     -2.385160   -1.872190   -8.985550
  H     -1.502500   -2.660580  -10.293360
  H     -4.277440   -3.455220   -9.283580
  H     -3.913950   -2.583780  -10.768850
  H     -3.409080   -4.259820  -10.597950
  H     -2.047470   -5.632510   -9.457650
  H     -0.529440   -4.898910   -9.993840
  H     -0.972120   -6.257690   -7.289220
  H     -0.134570   -6.963400   -8.671390
  H      0.549360   -5.561270   -7.851640
  H    -12.970270   -8.719340   -9.758260
  H    -14.344810   -9.702930  -10.271230
  H    -14.245860   -7.982120   -7.744590
  H    -15.114870   -7.598650   -9.230230
  H    -15.616940   -8.973000   -8.246360
  H    -12.889030  -11.693280  -10.324570
  H    -11.523590  -10.695640   -9.814510
  H    -12.519800  -13.194690   -8.359310
  H    -11.086740  -13.095020   -9.381420
  H    -11.148150  -12.202630   -7.861910
  H    -10.695930   -8.874440   -2.853180
  H     -4.798650   -4.411650   -2.881420
  H     -7.875510   -5.325470    0.460510
  H     -8.896260   -6.791080    0.513490
  H     -5.838140   -6.755350    0.543810
  H     -6.877320   -7.067290    1.937800
  H     -6.855980   -8.207870    0.588300

 Total Charge           Charge          ....    0
 Multiplicity           Mult            ....    1
 Number of Electrons    NEL             ....  620
 Basis Dimension        Dim             .... 1371

ORBITAL ENERGIES
----------------

  NO   OCC          E(Eh)            E(eV)
   0   2.0000     -89.012886     -2422.1638
   1   2.0000     -89.012695     -2422.1586
   2   2.0000     -89.009063     -2422.0597
   3   2.0000     -89.007533     -2422.0181
   4   2.0000     -89.005640     -2421.9666
   5   2.0000     -89.000679     -2421.8316
   6   2.0000     -24.834351      -675.7771
   7   2.0000     -24.833724      -675.7600
   8   2.0000     -24.832308      -675.7215
   9   2.0000     -24.832136      -675.7168
  10   2.0000     -19.261045      -524.1197
  11   2.0000     -19.260256      -524.0982
  12   2.0000     -19.244036      -523.6568
  13   2.0000     -19.242811      -523.6235
  14   2.0000     -14.505429      -394.7128
  15   2.0000     -14.454812      -393.3354
  16   2.0000     -14.453108      -393.2891
  17   2.0000     -14.449947      -393.2031
  18   2.0000     -14.449533      -393.1918
  19   2.0000     -10.436414      -283.9893
  20   2.0000     -10.436221      -283.9840
  21   2.0000     -10.419932      -283.5408
  22   2.0000     -10.419552      -283.5304
  23   2.0000     -10.419227      -283.5216
  24   2.0000     -10.418947      -283.5140
  25   2.0000     -10.409890      -283.2675
  26   2.0000     -10.408008      -283.2163
  27   2.0000     -10.382310      -282.5170
  28   2.0000     -10.381944      -282.5071
  29   2.0000     -10.379866      -282.4505
  30   2.0000     -10.379274      -282.4344
  31   2.0000     -10.377925      -282.3977
  32   2.0000     -10.377814      -282.3947
  33   2.0000     -10.369910      -282.1796
  34   2.0000     -10.369537      -282.1694
  35   2.0000     -10.369457      -282.1673
  36   2.0000     -10.369270      -282.1622
  37   2.0000     -10.367620      -282.1173
  38   2.0000     -10.362913      -281.9892
  39   2.0000     -10.361734      -281.9571
  40   2.0000     -10.357807      -281.8503
  41   2.0000     -10.357230      -281.8346
  42   2.0000     -10.356217      -281.8070
  43   2.0000     -10.355664      -281.7919
  44   2.0000     -10.354457      -281.7591
  45   2.0000     -10.354443      -281.7587
  46   2.0000     -10.354210      -281.7524
  47   2.0000     -10.351444      -281.6771
  48   2.0000     -10.351189      -281.6702
  49   2.0000     -10.351062      -281.6667
  50   2.0000     -10.351020      -281.6656
  51   2.0000     -10.344977      -281.5011
  52   2.0000     -10.344787      -281.4960
  53   2.0000     -10.342899      -281.4446
  54   2.0000     -10.342733      -281.4401
  55   2.0000     -10.342171      -281.4248
  56   2.0000     -10.342095      -281.4227
  57   2.0000     -10.341596      -281.4091
  58   2.0000     -10.339915      -281.3634
  59   2.0000     -10.337698      -281.3031
  60   2.0000     -10.336500      -281.2705
  61   2.0000     -10.336339      -281.2661
  62   2.0000     -10.335072      -281.2316
  63   2.0000     -10.334082      -281.2047
  64   2.0000     -10.333976      -281.2018
  65   2.0000     -10.333836      -281.1980
  66   2.0000     -10.332499      -281.1616
  67   2.0000     -10.332465      -281.1607
  68   2.0000     -10.331880      -281.1447
  69   2.0000     -10.330208      -281.0992
  70   2.0000     -10.329910      -281.0911
  71   2.0000     -10.329533      -281.0809
  72   2.0000     -10.325386      -280.9680
  73   2.0000     -10.323375      -280.9133
  74   2.0000     -10.314974      -280.6847
  75   2.0000     -10.314513      -280.6722
  76   2.0000     -10.314412      -280.6694
  77   2.0000     -10.314230      -280.6645
  78   2.0000     -10.299935      -280.2755
  79   2.0000     -10.293835      -280.1095
  80   2.0000     -10.293112      -280.0898
  81   2.0000     -10.292995      -280.0866
  82   2.0000     -10.286799      -279.9180
  83   2.0000      -8.126811      -221.1418
  84   2.0000      -8.126610      -221.1363
  85   2.0000      -8.122420      -221.0223
  86   2.0000      -8.120814      -220.9786
  87   2.0000      -8.119211      -220.9350
  88   2.0000      -8.112118      -220.7420
  89   2.0000      -6.086417      -165.6198
  90   2.0000      -6.086210      -165.6142
  91   2.0000      -6.082228      -165.5058
  92   2.0000      -6.082035      -165.5006
  93   2.0000      -6.082005      -165.4998
  94   2.0000      -6.080356      -165.4549
  95   2.0000      -6.078877      -165.4146
  96   2.0000      -6.078694      -165.4097
  97   2.0000      -6.078579      -165.4066
  98   2.0000      -6.077865      -165.3871
  99   2.0000      -6.076233      -165.3427
 100   2.0000      -6.074562      -165.2972
 101   2.0000      -6.074548      -165.2969
 102   2.0000      -6.073047      -165.2560
 103   2.0000      -6.071799      -165.2221
 104   2.0000      -6.071624      -165.2173
 105   2.0000      -6.067108      -165.0944
 106   2.0000      -6.064539      -165.0245
 107   2.0000      -1.363739       -37.1092
 108   2.0000      -1.363445       -37.1012
 109   2.0000      -1.348666       -36.6991
 110   2.0000      -1.348361       -36.6908
 111   2.0000      -1.199803       -32.6483
 112   2.0000      -1.179248       -32.0890
 113   2.0000      -1.177928       -32.0530
 114   2.0000      -1.177394       -32.0385
 115   2.0000      -1.074239       -29.2315
 116   2.0000      -1.071370       -29.1535
 117   2.0000      -1.068816       -29.0840
 118   2.0000      -1.063065       -28.9275
 119   2.0000      -1.061424       -28.8828
 120   2.0000      -1.061115       -28.8744
 121   2.0000      -1.046561       -28.4784
 122   2.0000      -1.043194       -28.3868
 123   2.0000      -1.042579       -28.3700
 124   2.0000      -1.033366       -28.1193
 125   2.0000      -1.032658       -28.1001
 126   2.0000      -1.031197       -28.0603
 127   2.0000      -1.025152       -27.8958
 128   2.0000      -0.998562       -27.1723
 129   2.0000      -0.997897       -27.1542
 130   2.0000      -0.985502       -26.8169
 131   2.0000      -0.982384       -26.7320
 132   2.0000      -0.949770       -25.8446
 133   2.0000      -0.946631       -25.7591
 134   2.0000      -0.944531       -25.7020
 135   2.0000      -0.938063       -25.5260
 136   2.0000      -0.933320       -25.3969
 137   2.0000      -0.922979       -25.1155
 138   2.0000      -0.919610       -25.0238
 139   2.0000      -0.913506       -24.8578
 140   2.0000      -0.913223       -24.8501
 141   2.0000      -0.903125       -24.5753
 142   2.0000      -0.900970       -24.5166
 143   2.0000      -0.890722       -24.2378
 144   2.0000      -0.889613       -24.2076
 145   2.0000      -0.889289       -24.1988
 146   2.0000      -0.888045       -24.1649
 147   2.0000      -0.886196       -24.1146
 148   2.0000      -0.884850       -24.0780
 149   2.0000      -0.875938       -23.8355
 150   2.0000      -0.873371       -23.7656
 151   2.0000      -0.854983       -23.2653
 152   2.0000      -0.848630       -23.0924
 153   2.0000      -0.822803       -22.3896
 154   2.0000      -0.815320       -22.1860
 155   2.0000      -0.813280       -22.1305
 156   2.0000      -0.812565       -22.1110
 157   2.0000      -0.810628       -22.0583
 158   2.0000      -0.809388       -22.0246
 159   2.0000      -0.791547       -21.5391
 160   2.0000      -0.786574       -21.4038
 161   2.0000      -0.782852       -21.3025
 162   2.0000      -0.766895       -20.8683
 163   2.0000      -0.751327       -20.4446
 164   2.0000      -0.748597       -20.3704
 165   2.0000      -0.746698       -20.3187
 166   2.0000      -0.743057       -20.2196
 167   2.0000      -0.740739       -20.1565
 168   2.0000      -0.738587       -20.0980
 169   2.0000      -0.735570       -20.0159
 170   2.0000      -0.729769       -19.8580
 171   2.0000      -0.725667       -19.7464
 172   2.0000      -0.720432       -19.6040
 173   2.0000      -0.718429       -19.5495
 174   2.0000      -0.714767       -19.4498
 175   2.0000      -0.705676       -19.2024
 176   2.0000      -0.700990       -19.0749
 177   2.0000      -0.697737       -18.9864
 178   2.0000      -0.684097       -18.6152
 179   2.0000      -0.683313       -18.5939
 180   2.0000      -0.682238       -18.5646
 181   2.0000      -0.681157       -18.5352
 182   2.0000      -0.680049       -18.5051
 183   2.0000      -0.679818       -18.4988
 184   2.0000      -0.673070       -18.3152
 185   2.0000      -0.670878       -18.2555
 186   2.0000      -0.660183       -17.9645
 187   2.0000      -0.657681       -17.8964
 188   2.0000      -0.648807       -17.6549
 189   2.0000      -0.647092       -17.6083
 190   2.0000      -0.634647       -17.2696
 191   2.0000      -0.631119       -17.1736
 192   2.0000      -0.629882       -17.1400
 193   2.0000      -0.626892       -17.0586
 194   2.0000      -0.624187       -16.9850
 195   2.0000      -0.623874       -16.9765
 196   2.0000      -0.618040       -16.8177
 197   2.0000      -0.612914       -16.6782
 198   2.0000      -0.606260       -16.4972
 199   2.0000      -0.604780       -16.4569
 200   2.0000      -0.600189       -16.3320
 201   2.0000      -0.599213       -16.3054
 202   2.0000      -0.595661       -16.2088
 203   2.0000      -0.591748       -16.1023
 204   2.0000      -0.588961       -16.0264
 205   2.0000      -0.587156       -15.9773
 206   2.0000      -0.586352       -15.9555
 207   2.0000      -0.583987       -15.8911
 208   2.0000      -0.583098       -15.8669
 209   2.0000      -0.582691       -15.8558
 210   2.0000      -0.580960       -15.8087
 211   2.0000      -0.579764       -15.7762
 212   2.0000      -0.577976       -15.7275
 213   2.0000      -0.576961       -15.6999
 214   2.0000      -0.576183       -15.6787
 215   2.0000      -0.573567       -15.6076
 216   2.0000      -0.571233       -15.5440
 217   2.0000      -0.567589       -15.4449
 218   2.0000      -0.567270       -15.4362
 219   2.0000      -0.563364       -15.3299
 220   2.0000      -0.562534       -15.3073
 221   2.0000      -0.559718       -15.2307
 222   2.0000      -0.557345       -15.1661
 223   2.0000      -0.552822       -15.0431
 224   2.0000      -0.551832       -15.0161
 225   2.0000      -0.549459       -14.9515
 226   2.0000      -0.546353       -14.8670
 227   2.0000      -0.544561       -14.8183
 228   2.0000      -0.541329       -14.7303
 229   2.0000      -0.539734       -14.6869
 230   2.0000      -0.536834       -14.6080
 231   2.0000      -0.536603       -14.6017
 232   2.0000      -0.533921       -14.5287
 233   2.0000      -0.530698       -14.4410
 234   2.0000      -0.530476       -14.4350
 235   2.0000      -0.529824       -14.4173
 236   2.0000      -0.528053       -14.3690
 237   2.0000      -0.526908       -14.3379
 238   2.0000      -0.523226       -14.2377
 239   2.0000      -0.523077       -14.2337
 240   2.0000      -0.519727       -14.1425
 241   2.0000      -0.517277       -14.0758
 242   2.0000      -0.516885       -14.0651
 243   2.0000      -0.516455       -14.0534
 244   2.0000      -0.514214       -13.9925
 245   2.0000      -0.513462       -13.9720
 246   2.0000      -0.510846       -13.9008
 247   2.0000      -0.507621       -13.8131
 248   2.0000      -0.500736       -13.6257
 249   2.0000      -0.499619       -13.5953
 250   2.0000      -0.496908       -13.5215
 251   2.0000      -0.494368       -13.4524
 252   2.0000      -0.492388       -13.3985
 253   2.0000      -0.491685       -13.3794
 254   2.0000      -0.490718       -13.3531
 255   2.0000      -0.490115       -13.3367
 256   2.0000      -0.489852       -13.3296
 257   2.0000      -0.488357       -13.2889
 258   2.0000      -0.487025       -13.2526
 259   2.0000      -0.485421       -13.2090
 260   2.0000      -0.484922       -13.1954
 261   2.0000      -0.481613       -13.1054
 262   2.0000      -0.479996       -13.0613
 263   2.0000      -0.479148       -13.0383
 264   2.0000      -0.479032       -13.0351
 265   2.0000      -0.476145       -12.9566
 266   2.0000      -0.474371       -12.9083
 267   2.0000      -0.471828       -12.8391
 268   2.0000      -0.471163       -12.8210
 269   2.0000      -0.466080       -12.6827
 270   2.0000      -0.465683       -12.6719
 271   2.0000      -0.464178       -12.6309
 272   2.0000      -0.462657       -12.5895
 273   2.0000      -0.460529       -12.5316
 274   2.0000      -0.458938       -12.4883
 275   2.0000      -0.456909       -12.4331
 276   2.0000      -0.456475       -12.4213
 277   2.0000      -0.453775       -12.3478
 278   2.0000      -0.450797       -12.2668
 279   2.0000      -0.445178       -12.1139
 280   2.0000      -0.444647       -12.0994
 281   2.0000      -0.444328       -12.0908
 282   2.0000      -0.442715       -12.0469
 283   2.0000      -0.441808       -12.0222
 284   2.0000      -0.441109       -12.0032
 285   2.0000      -0.437862       -11.9148
 286   2.0000      -0.435332       -11.8460
 287   2.0000      -0.433579       -11.7983
 288   2.0000      -0.423264       -11.5176
 289   2.0000      -0.408657       -11.1201
 290   2.0000      -0.406830       -11.0704
 291   2.0000      -0.391613       -10.6563
 292   2.0000      -0.389385       -10.5957
 293   2.0000      -0.384345       -10.4586
 294   2.0000      -0.382353       -10.4044
 295   2.0000      -0.379746       -10.3334
 296   2.0000      -0.378719       -10.3055
 297   2.0000      -0.377746       -10.2790
 298   2.0000      -0.376577       -10.2472
 299   2.0000      -0.374303       -10.1853
 300   2.0000      -0.372700       -10.1417
 301   2.0000      -0.372247       -10.1294
 302   2.0000      -0.369589       -10.0570
 303   2.0000      -0.367550       -10.0015
 304   2.0000      -0.357010        -9.7147
 305   2.0000      -0.348339        -9.4788
 306   2.0000      -0.343555        -9.3486
 307   2.0000      -0.324608        -8.8330
 308   2.0000      -0.289873        -7.8879
 309   2.0000      -0.272339        -7.4107
 310   0.0000      -0.082963        -2.2575
 311   0.0000      -0.074336        -2.0228
 312   0.0000      -0.050955        -1.3866
 313   0.0000      -0.042789        -1.1643
 314   0.0000      -0.036271        -0.9870

MULLIKEN ATOMIC CHARGES
-----------------------
   0 C :    0.225138
   1 O :   -0.190450
   2 C :   -0.052664
   3 C :   -0.098313
   4 C :    0.241365
   5 C :    0.244827
   6 C :   -0.087691
   7 C :    0.026170
   8 C :    0.282844
   9 C :   -0.385598
  10 C :   -0.127647
  11 N :    0.107269
  12 C :   -0.131742
  13 N :    0.108660
  14 C :   -0.143024
  15 C :    0.066765
  16 C :    0.229814
  17 O :   -0.203812
  18 C :   -0.057309
  19 C :   -0.090487
  20 C :    0.239691
  21 C :    0.242144
  22 C :   -0.084472
  23 C :    0.023599
  24 C :    0.291389
  25 C :   -0.380560
  26 C :   -0.126384
  27 N :    0.098080
  28 C :   -0.134260
  29 N :    0.106663
  30 C :   -0.148124
  31 C :    0.001182
  32 C :   -0.094042
  33 S :    0.222826
  34 C :   -0.034544
  35 C :    0.012684
  36 C :   -0.050745
  37 C :   -0.085574
  38 C :    0.002574
  39 C :   -0.199661
  40 S :    0.185089
  41 C :   -0.055709
  42 C :   -0.060996
  43 C :   -0.041096
  44 C :   -0.055076
  45 S :    0.185144
  46 C :   -0.089595
  47 C :    0.017518
  48 C :   -0.068462
  49 C :   -0.047418
  50 C :   -0.024538
  51 C :   -0.194049
  52 S :    0.181939
  53 C :   -0.159334
  54 C :    0.014884
  55 C :    0.034937
  56 C :   -0.021093
  57 C :    0.013693
  58 C :   -0.021122
  59 C :    0.032410
  60 C :   -0.018366
  61 C :    0.032937
  62 C :   -0.020133
  63 F :   -0.180109
  64 F :   -0.183352
  65 F :   -0.183895
  66 F :   -0.179292
  67 S :    0.151970
  68 C :   -0.091908
  69 C :   -0.013533
  70 C :   -0.043958
  71 C :   -0.089184
  72 C :   -0.024086
  73 C :    0.242887
  74 N :   -0.339106
  75 C :    0.240587
  76 S :    0.151976
  77 C :   -0.039086
  78 C :   -0.046881
  79 C :    0.077234
  80 C :   -0.049871
  81 O :   -0.231169
  82 O :   -0.230982
  83 H :    0.040285
  84 H :    0.046104
  85 H :    0.024405
  86 H :    0.041588
  87 H :    0.045501
  88 H :    0.028654
  89 H :    0.028803
  90 H :    0.014336
  91 H :    0.019009
  92 H :    0.037611
  93 H :    0.034224
  94 H :    0.033956
  95 H :    0.032422
  96 H :    0.044960
  97 H :    0.029323
  98 H :    0.031086
  99 H :    0.037714
 100 H :    0.038034
 101 H :    0.038747
 102 H :    0.043026
 103 H :    0.025461
 104 H :    0.030910
 105 H :    0.038991
 106 H :    0.039085
 107 H :    0.041338
 108 H :    0.030709
 109 H :    0.024982
 110 H :    0.041232
 111 H :    0.039583
 112 H :    0.040079
 113 H :    0.039756
 114 H :    0.040477
 115 H :    0.063243
 116 H :    0.054349
 117 H :    0.041316
 118 H :    0.045310
 119 H :    0.047003
Sum of atomic charges:   -0.0000000

LOEWDIN ATOMIC CHARGES
----------------------
   0 C :    0.096712
   1 O :   -0.152288
   2 C :   -0.049943
   3 C :   -0.008225
   4 C :    0.074040
   5 C :    0.077196
   6 C :   -0.017902
   7 C :   -0.019697
   8 C :    0.080520
   9 C :   -0.149480
  10 C :   -0.019375
  11 N :   -0.052571
  12 C :   -0.014338
  13 N :   -0.054275
  14 C :   -0.122983
  15 C :    0.055656
  16 C :    0.091893
  17 O :   -0.170071
  18 C :   -0.049615
  19 C :   -0.006920
  20 C :    0.073945
  21 C :    0.076809
  22 C :   -0.017550
  23 C :   -0.019187
  24 C :    0.081778
  25 C :   -0.151529
  26 C :   -0.014479
  27 N :   -0.059314
  28 C :   -0.014920
  29 N :   -0.055004
  30 C :   -0.134408
  31 C :    0.064335
  32 C :   -0.193747
  33 S :    0.510709
  34 C :   -0.168077
  35 C :   -0.050600
  36 C :   -0.006770
  37 C :   -0.203540
  38 C :   -0.020464
  39 C :   -0.039911
  40 S :    0.458049
  41 C :   -0.169941
  42 C :   -0.061291
  43 C :   -0.177251
  44 C :   -0.170557
  45 S :    0.457718
  46 C :   -0.202839
  47 C :   -0.019381
  48 C :   -0.062339
  49 C :   -0.162881
  50 C :   -0.045505
  51 C :   -0.038181
  52 S :    0.461407
  53 C :   -0.186298
  54 C :    0.002253
  55 C :   -0.010674
  56 C :   -0.061640
  57 C :   -0.016435
  58 C :   -0.058000
  59 C :   -0.013785
  60 C :   -0.059104
  61 C :   -0.013769
  62 C :   -0.059316
  63 F :   -0.047524
  64 F :   -0.049267
  65 F :   -0.049983
  66 F :   -0.047481
  67 S :    0.438960
  68 C :   -0.172147
  69 C :   -0.090443
  70 C :   -0.026188
  71 C :   -0.170394
  72 C :   -0.092511
  73 C :    0.105231
  74 N :   -0.036677
  75 C :    0.104526
  76 S :    0.439210
  77 C :   -0.178124
  78 C :   -0.026091
  79 C :    0.044822
  80 C :   -0.061962
  81 O :   -0.178304
  82 O :   -0.179496
  83 H :    0.054530
  84 H :    0.054005
  85 H :    0.044130
  86 H :    0.055480
  87 H :    0.053978
  88 H :    0.052149
  89 H :    0.042092
  90 H :    0.031055
  91 H :    0.030333
  92 H :    0.037732
  93 H :    0.030954
  94 H :    0.027815
  95 H :    0.024545
  96 H :    0.034147
  97 H :    0.023542
  98 H :    0.023454
  99 H :    0.029474
 100 H :    0.026573
 101 H :    0.029940
 102 H :    0.027981
 103 H :    0.024227
 104 H :    0.026568
 105 H :    0.026822
 106 H :    0.030032
 107 H :    0.027874
 108 H :    0.026508
 109 H :    0.024071
 110 H :    0.027915
 111 H :    0.030036
 112 H :    0.027012
 113 H :    0.040744
 114 H :    0.040681
 115 H :    0.031253
 116 H :    0.029443
 117 H :    0.026685
 118 H :    0.034263
 119 H :    0.029148

  Mayer bond orders larger than 0.100000
B(  0-C ,  1-O ) :   2.1407 B(  0-C ,  2-C ) :   0.9660 B(  0-C , 14-C ) :   0.9610
B(  2-C ,  3-C ) :   1.3422 B(  2-C ,  7-C ) :   1.3471 B(  3-C ,  4-C ) :   1.3305
B(  3-C , 83-H ) :   1.0145 B(  4-C ,  5-C ) :   1.2921 B(  4-C , 65-F ) :   1.1008
B(  5-C ,  6-C ) :   1.3514 B(  5-C , 66-F ) :   1.1146 B(  6-C ,  7-C ) :   1.3343
B(  6-C , 84-H ) :   0.9874 B(  7-C ,  8-C ) :   1.0099 B(  8-C ,  9-C ) :   1.6315
B(  8-C , 14-C ) :   1.1066 B(  9-C , 10-C ) :   1.1275 B(  9-C , 12-C ) :   1.1337
B( 10-C , 11-N ) :   2.9625 B( 12-C , 13-N ) :   2.9721 B( 14-C , 15-C ) :   1.5754
B( 15-C , 53-C ) :   1.2774 B( 15-C , 85-H ) :   0.9085 B( 16-C , 17-O ) :   2.1201
B( 16-C , 18-C ) :   0.9690 B( 16-C , 30-C ) :   0.9919 B( 18-C , 19-C ) :   1.3443
B( 18-C , 23-C ) :   1.3455 B( 19-C , 20-C ) :   1.3277 B( 19-C , 86-H ) :   1.0151
B( 20-C , 21-C ) :   1.2952 B( 20-C , 64-F ) :   1.1009 B( 21-C , 22-C ) :   1.3481
B( 21-C , 63-F ) :   1.1139 B( 22-C , 23-C ) :   1.3384 B( 22-C , 87-H ) :   0.9877
B( 23-C , 24-C ) :   1.0136 B( 24-C , 25-C ) :   1.6295 B( 24-C , 30-C ) :   1.1083
B( 25-C , 26-C ) :   1.1341 B( 25-C , 28-C ) :   1.1316 B( 26-C , 27-N ) :   2.9544
B( 28-C , 29-N ) :   2.9718 B( 30-C , 31-C ) :   1.4874 B( 31-C , 32-C ) :   1.3232
B( 31-C , 88-H ) :   0.9399 B( 32-C , 33-S ) :   1.0667 B( 32-C , 36-C ) :   1.3063
B( 33-S , 34-C ) :   1.1114 B( 34-C , 35-C ) :   1.4158 B( 34-C , 37-C ) :   1.2265
B( 35-C , 36-C ) :   1.4106 B( 35-C , 39-C ) :   0.9063 B( 36-C , 89-H ) :   1.0178
B( 37-C , 38-C ) :   1.5121 B( 37-C , 40-S ) :   1.0829 B( 38-C , 39-C ) :   0.9211
B( 38-C , 42-C ) :   1.3443 B( 39-C , 59-C ) :   1.0405 B( 39-C , 61-C ) :   1.0431
B( 40-S , 41-C ) :   1.1364 B( 41-C , 42-C ) :   1.4611 B( 41-C , 43-C ) :   1.1646
B( 42-C , 90-H ) :   0.9977 B( 43-C , 67-S ) :   1.1001 B( 43-C , 70-C ) :   1.5073
B( 44-C , 45-S ) :   1.1358 B( 44-C , 48-C ) :   1.4672 B( 44-C , 77-C ) :   1.1644
B( 45-S , 46-C ) :   1.0835 B( 46-C , 47-C ) :   1.5220 B( 46-C , 49-C ) :   1.2197
B( 47-C , 48-C ) :   1.3428 B( 47-C , 51-C ) :   0.9259 B( 48-C , 91-H ) :   0.9920
B( 49-C , 50-C ) :   1.4455 B( 49-C , 52-S ) :   1.1464 B( 50-C , 51-C ) :   0.9307
B( 50-C , 54-C ) :   1.3806 B( 51-C , 55-C ) :   1.0136 B( 51-C , 57-C ) :   1.0283
B( 52-S , 53-C ) :   1.0776 B( 53-C , 54-C ) :   1.3633 B( 54-C , 92-H ) :   0.9831
B( 55-C , 56-C ) :   1.0997 B( 55-C , 93-H ) :   0.9477 B( 55-C , 94-H ) :   0.9451
B( 56-C , 95-H ) :   0.9663 B( 56-C , 96-H ) :   0.9669 B( 56-C , 97-H ) :   0.9674
B( 57-C , 58-C ) :   1.0881 B( 57-C , 98-H ) :   0.9473 B( 57-C , 99-H ) :   0.9486
B( 58-C ,100-H ) :   0.9695 B( 58-C ,101-H ) :   0.9705 B( 58-C ,102-H ) :   0.9672
B( 59-C , 60-C ) :   1.0858 B( 59-C ,103-H ) :   0.9481 B( 59-C ,104-H ) :   0.9485
B( 60-C ,105-H ) :   0.9678 B( 60-C ,106-H ) :   0.9700 B( 60-C ,107-H ) :   0.9683
B( 61-C , 62-C ) :   1.0846 B( 61-C ,108-H ) :   0.9481 B( 61-C ,109-H ) :   0.9480
B( 62-C ,110-H ) :   0.9685 B( 62-C ,111-H ) :   0.9703 B( 62-C ,112-H ) :   0.9679
B( 67-S , 68-C ) :   1.1376 B( 68-C , 69-C ) :   1.4950 B( 68-C , 71-C ) :   1.1857
B( 69-C , 70-C ) :   1.2812 B( 69-C , 75-C ) :   0.9492 B( 70-C ,113-H ) :   0.9972
B( 71-C , 72-C ) :   1.4925 B( 71-C , 76-S ) :   1.1384 B( 72-C , 73-C ) :   0.9501
B( 72-C , 78-C ) :   1.2808 B( 73-C , 74-N ) :   1.0542 B( 73-C , 82-O ) :   2.1011
B( 74-N , 75-C ) :   1.0501 B( 74-N , 79-C ) :   0.9019 B( 75-C , 81-O ) :   2.1002
B( 76-S , 77-C ) :   1.0996 B( 77-C , 78-C ) :   1.5070 B( 78-C ,114-H ) :   0.9974
B( 79-C , 80-C ) :   1.1090 B( 79-C ,115-H ) :   0.9393 B( 79-C ,116-H ) :   0.9442
B( 80-C ,117-H ) :   0.9683 B( 80-C ,118-H ) :   0.9745 B( 80-C ,119-H ) :   0.9707

-----------------------------------------------------------------------------
         ABSORPTION SPECTRUM VIA TRANSITION ELECTRIC DIPOLE MOMENTS
-----------------------------------------------------------------------------
State   Energy  Wavelength   fosc         T2         TX        TY        TZ
        (cm-1)    (nm)                  (au**2)     (au)      (au)      (au)
-----------------------------------------------------------------------------
   0   17745.1    563.5   4.251604242  78.87686  -7.59469  -4.60122   0.16201
   1   22949.2    435.7   0.296247204   4.24974  -0.32009   0.76580   1.88701
   2   28565.5    350.1   0.083599659   0.96347  -0.74690  -0.44967  -0.45101
   3   29733.1    336.3   0.053676552   0.59432  -0.42065  -0.46980  -0.44346
   4   30682.9    325.9   0.185686121   1.99232   1.23201   0.68880   0.00402
   5   32329.5    309.3   0.002820014   0.02872  -0.02169   0.04930   0.16067
   6   34439.8    290.4   0.139778458   1.33615  -0.52570  -0.01689   1.02932
   7   36039.7    277.5   0.149026342   1.36131   0.34337  -0.55021  -0.96988
   8   36758.5    272.0   0.530756954   4.75350  -0.73157  -0.10233   2.05130
   9   37950.5    263.5   0.038583111   0.33470   0.09211  -0.01322   0.57100
  10   38303.8    261.1   0.056710290   0.48741   0.55393  -0.18167  -0.38415
  11   39222.4    255.0   0.817366434   6.86054   0.04632   0.47130   2.57610
  12   39344.8    254.2   0.225695219   1.88847   0.45529   0.66733   1.11169

Dispersion correction           -0.074079828
FINAL SINGLE POINT ENERGY     -5819.960306661077

DIPOLE MOMENT
-------------
                                X             Y             Z
Electronic contribution:      4.25474      -7.78887      17.89950
Nuclear contribution   :     -4.48026       7.52265     -19.25267
                        -----------------------------------------
Total Dipole Moment    :     -0.22552      -0.26622      -1.35318
                        -----------------------------------------
Magnitude (a.u.)       :      1.39743
Magnitude (Debye)      :      3.55199

Rotational constants in cm-1:     0.001668     0.000125     0.000118
Rotational constants in MHz :    49.997697     3.751745     3.538112

                             ****ORCA TERMINATED NORMALLY****
TOTAL RUN TIME: 0 days 0 hours 13 minutes 14 seconds 547 msec
