                         Program Version 4.2.0 -  RELEASE  -
|  1> # ORCA input file
|  2> # SCF done       -182.777781467066          0.000480687975
|  3> ! wb97x-d3 def2-SVP def2/J RIJCOSX Grid4 TightSCF
|  4> %maxcore 5000
|  5> %tddft
|  6>     Mode sTDA
|  7>     Ethresh 5.0
|  8>     maxcore 5000
|  9> end
| 10>
| 11> %pal
| 12>   nprocs 6
| 13>   end
| 14> * xyz 0 1
| 15>    C       -5.67104        -2.28915         2.60922
| 16>    O       -6.27234        -1.23413         2.72351
| 17>    C       -5.39365        -3.25204         3.69104
| 18>    C       -5.75523        -3.18345         5.02276
| 19>    C       -5.38045        -4.22004         5.86294
| 20>    C       -4.65949        -5.28316         5.34056
| 21>    F       -4.30527        -6.28000         6.16708
| 22>    C       -4.28427        -5.37281         4.00627
| 23>    C       -4.66168        -4.33444         3.17194
| 24>    C       -4.43935        -4.10991         1.74143
| 25>    C       -3.72559        -4.94164         0.91688
| 26>    C       -3.48528        -4.73411        -0.45729
| 27>    N       -3.24157        -4.63656        -1.57617
| 28>    C       -3.11017        -6.13890         1.34018
| 29>    N       -2.58536        -7.12220         1.61427
| 30>    C       -5.08182        -2.85911         1.39618
| 31>    C       -5.13482        -2.31649         0.13323
| 32>    C       -5.68540        -1.11928        -0.32851
| 33>    S       -6.47287         0.08965         0.68788
| 34>    C       -6.71557         1.10327        -0.68360
| 35>    C       -6.22688         0.51541        -1.86511
| 36>    C       -5.64082        -0.72794        -1.68016
| 37>    C       -5.09378        -1.54244        -2.80607
| 38>    C       -6.12410        -2.56895        -3.28557
| 39>    S       -6.46238         1.50673        -3.29317
| 40>    C       -7.20980         2.70584        -2.29719
| 41>    C       -7.26623         2.36100        -0.93994
| 42>    N       -7.88753         3.35607        -0.23324
| 43>    C       -8.35354         3.09493         1.11039
| 44>    C       -8.22507         4.35937        -1.11838
| 45>    C       -7.83866         3.94982        -2.43015
| 46>    C       -8.18484         4.69891        -3.57677
| 47>    N       -7.93177         4.42906        -4.84762
| 48>    S       -8.62508         5.56986        -5.76267
| 49>    N       -9.27328         6.45437        -4.57247
| 50>    C       -8.96864         5.88842        -3.41529
| 51>    C       -9.26060         6.34126        -2.10930
| 52>    C       -8.83041         5.63190        -0.95105
| 53>    N       -9.14182         6.38762         0.16987
| 54>    C       -8.49065         6.41767         1.46296
| 55>    C       -7.06029         6.93839         1.33993
| 56>    C       -9.75818         7.53253        -0.26604
| 57>    C       -9.86729         7.52334        -1.66083
| 58>    S      -10.61823         8.93718        -2.30994
| 59>    C      -10.78651         9.56909        -0.68614
| 60>    C      -10.27019         8.70662         0.29185
| 61>    S      -10.38654         9.40624         1.85959
| 62>    C      -11.18387        10.83477         1.19339
| 63>    C      -11.30341        10.77400        -0.19117
| 64>    C      -11.72797        11.88864        -1.09154
| 65>    C      -12.91560        11.50390        -1.97373
| 66>    C      -11.44932        11.87466         2.11110
| 67>    C      -12.49005        12.76184         2.07972
| 68>    C      -12.62042        13.95662         2.88339
| 69>    C      -11.62986        14.55730         3.61616
| 70>    C      -10.29909        14.09576         3.69652
| 71>    N       -9.19525        13.79206         3.78619
| 72>    C      -11.80690        15.73402         4.37332
| 73>    N      -11.89186        16.68138         5.01566
| 74>    C      -13.97934        14.46504         2.70175
| 75>    C      -14.61814        15.57161         3.23609
| 76>    C      -15.93333        15.79132         2.84978
| 77>    F      -16.57337        16.85839         3.35361
| 78>    C      -16.62051        14.96503         1.97264
| 79>    C      -15.97775        13.85496         1.44817
| 80>    C      -14.66557        13.61919         1.81246
| 81>    C      -13.78287        12.50784         1.40154
| 82>    O      -14.10086        11.53153         0.75771
| 83>    C       -7.23813         3.22341         2.14681
| 84>    H       -6.31679        -2.33832         5.38902
| 85>    H       -5.63646        -4.21859         6.91050
| 86>    H       -3.72467        -6.22959         3.66990
| 87>    H       -4.67264        -2.90214        -0.64940
| 88>    H       -4.85403        -0.86738        -3.62991
| 89>    H       -4.17920        -2.05858        -2.51007
| 90>    H       -7.02819        -2.06791        -3.62375
| 91>    H       -5.71355        -3.14352        -4.11081
| 92>    H       -6.38663        -3.25567        -2.48418
| 93>    H       -9.19766         3.75293         1.32185
| 94>    H       -8.72732         2.06532         1.13345
| 95>    H       -9.07553         7.09262         2.09293
| 96>    H       -8.49550         5.43847         1.92978
| 97>    H       -7.05818         7.94207         0.92124
| 98>    H       -6.59294         6.97224         2.32009
| 99>    H       -6.47271         6.29367         0.68916
|100>    H      -11.97291        12.77161        -0.50078
|101>    H      -10.87618        12.13410        -1.73454
|102>    H      -13.76294        11.22385        -1.35501
|103>    H      -13.19762        12.34895        -2.59652
|104>    H      -12.65900        10.66720        -2.61787
|105>    H      -10.75792        11.93054         2.94458
|106>    H      -14.14548        16.24968         3.92723
|107>    H      -17.64135        15.19963         1.71611
|108>    H      -16.47927        13.18616         0.76628
|109>    H       -6.52091         2.41731         2.02063
|110>    H       -6.70937         4.16785         2.05171
|111>    H       -7.65629         3.14901         3.14676
|112> *
|113>
|114>                          ****END OF INPUT****

CARTESIAN COORDINATES (ANGSTROEM)
---------------------------------
  C     -5.671040   -2.289150    2.609220
  O     -6.272340   -1.234130    2.723510
  C     -5.393650   -3.252040    3.691040
  C     -5.755230   -3.183450    5.022760
  C     -5.380450   -4.220040    5.862940
  C     -4.659490   -5.283160    5.340560
  F     -4.305270   -6.280000    6.167080
  C     -4.284270   -5.372810    4.006270
  C     -4.661680   -4.334440    3.171940
  C     -4.439350   -4.109910    1.741430
  C     -3.725590   -4.941640    0.916880
  C     -3.485280   -4.734110   -0.457290
  N     -3.241570   -4.636560   -1.576170
  C     -3.110170   -6.138900    1.340180
  N     -2.585360   -7.122200    1.614270
  C     -5.081820   -2.859110    1.396180
  C     -5.134820   -2.316490    0.133230
  C     -5.685400   -1.119280   -0.328510
  S     -6.472870    0.089650    0.687880
  C     -6.715570    1.103270   -0.683600
  C     -6.226880    0.515410   -1.865110
  C     -5.640820   -0.727940   -1.680160
  C     -5.093780   -1.542440   -2.806070
  C     -6.124100   -2.568950   -3.285570
  S     -6.462380    1.506730   -3.293170
  C     -7.209800    2.705840   -2.297190
  C     -7.266230    2.361000   -0.939940
  N     -7.887530    3.356070   -0.233240
  C     -8.353540    3.094930    1.110390
  C     -8.225070    4.359370   -1.118380
  C     -7.838660    3.949820   -2.430150
  C     -8.184840    4.698910   -3.576770
  N     -7.931770    4.429060   -4.847620
  S     -8.625080    5.569860   -5.762670
  N     -9.273280    6.454370   -4.572470
  C     -8.968640    5.888420   -3.415290
  C     -9.260600    6.341260   -2.109300
  C     -8.830410    5.631900   -0.951050
  N     -9.141820    6.387620    0.169870
  C     -8.490650    6.417670    1.462960
  C     -7.060290    6.938390    1.339930
  C     -9.758180    7.532530   -0.266040
  C     -9.867290    7.523340   -1.660830
  S    -10.618230    8.937180   -2.309940
  C    -10.786510    9.569090   -0.686140
  C    -10.270190    8.706620    0.291850
  S    -10.386540    9.406240    1.859590
  C    -11.183870   10.834770    1.193390
  C    -11.303410   10.774000   -0.191170
  C    -11.727970   11.888640   -1.091540
  C    -12.915600   11.503900   -1.973730
  C    -11.449320   11.874660    2.111100
  C    -12.490050   12.761840    2.079720
  C    -12.620420   13.956620    2.883390
  C    -11.629860   14.557300    3.616160
  C    -10.299090   14.095760    3.696520
  N     -9.195250   13.792060    3.786190
  C    -11.806900   15.734020    4.373320
  N    -11.891860   16.681380    5.015660
  C    -13.979340   14.465040    2.701750
  C    -14.618140   15.571610    3.236090
  C    -15.933330   15.791320    2.849780
  F    -16.573370   16.858390    3.353610
  C    -16.620510   14.965030    1.972640
  C    -15.977750   13.854960    1.448170
  C    -14.665570   13.619190    1.812460
  C    -13.782870   12.507840    1.401540
  O    -14.100860   11.531530    0.757710
  C     -7.238130    3.223410    2.146810
  H     -6.316790   -2.338320    5.389020
  H     -5.636460   -4.218590    6.910500
  H     -3.724670   -6.229590    3.669900
  H     -4.672640   -2.902140   -0.649400
  H     -4.854030   -0.867380   -3.629910
  H     -4.179200   -2.058580   -2.510070
  H     -7.028190   -2.067910   -3.623750
  H     -5.713550   -3.143520   -4.110810
  H     -6.386630   -3.255670   -2.484180
  H     -9.197660    3.752930    1.321850
  H     -8.727320    2.065320    1.133450
  H     -9.075530    7.092620    2.092930
  H     -8.495500    5.438470    1.929780
  H     -7.058180    7.942070    0.921240
  H     -6.592940    6.972240    2.320090
  H     -6.472710    6.293670    0.689160
  H    -11.972910   12.771610   -0.500780
  H    -10.876180   12.134100   -1.734540
  H    -13.762940   11.223850   -1.355010
  H    -13.197620   12.348950   -2.596520
  H    -12.659000   10.667200   -2.617870
  H    -10.757920   11.930540    2.944580
  H    -14.145480   16.249680    3.927230
  H    -17.641350   15.199630    1.716110
  H    -16.479270   13.186160    0.766280
  H     -6.520910    2.417310    2.020630
  H     -6.709370    4.167850    2.051710
  H     -7.656290    3.149010    3.146760

 Total Charge           Charge          ....    0
 Multiplicity           Mult            ....    1
 Number of Electrons    NEL             ....  510
 Basis Dimension        Dim             .... 1126

ORBITAL ENERGIES
----------------

  NO   OCC          E(Eh)            E(eV)
   0   2.0000     -89.032376     -2422.6941
   1   2.0000     -88.998677     -2421.7771
   2   2.0000     -88.993464     -2421.6353
   3   2.0000     -88.992411     -2421.6066
   4   2.0000     -88.990265     -2421.5482
   5   2.0000     -24.825590      -675.5386
   6   2.0000     -24.824019      -675.4959
   7   2.0000     -19.258239      -524.0433
   8   2.0000     -19.256011      -523.9827
   9   2.0000     -14.526237      -395.2790
  10   2.0000     -14.524899      -395.2426
  11   2.0000     -14.470982      -393.7754
  12   2.0000     -14.470455      -393.7611
  13   2.0000     -14.456332      -393.3768
  14   2.0000     -14.453784      -393.3075
  15   2.0000     -14.452284      -393.2666
  16   2.0000     -14.448889      -393.1743
  17   2.0000     -10.414499      -283.3929
  18   2.0000     -10.412678      -283.3434
  19   2.0000     -10.406070      -283.1635
  20   2.0000     -10.405348      -283.1439
  21   2.0000     -10.381999      -282.5086
  22   2.0000     -10.381086      -282.4837
  23   2.0000     -10.380877      -282.4780
  24   2.0000     -10.378838      -282.4225
  25   2.0000     -10.377340      -282.3818
  26   2.0000     -10.377106      -282.3754
  27   2.0000     -10.371470      -282.2220
  28   2.0000     -10.370863      -282.2055
  29   2.0000     -10.362626      -281.9814
  30   2.0000     -10.362314      -281.9729
  31   2.0000     -10.360062      -281.9116
  32   2.0000     -10.359403      -281.8937
  33   2.0000     -10.357711      -281.8476
  34   2.0000     -10.357348      -281.8378
  35   2.0000     -10.355480      -281.7869
  36   2.0000     -10.355130      -281.7774
  37   2.0000     -10.355114      -281.7770
  38   2.0000     -10.354661      -281.7646
  39   2.0000     -10.353115      -281.7226
  40   2.0000     -10.352612      -281.7089
  41   2.0000     -10.352167      -281.6968
  42   2.0000     -10.350844      -281.6608
  43   2.0000     -10.350479      -281.6509
  44   2.0000     -10.349981      -281.6373
  45   2.0000     -10.346671      -281.5472
  46   2.0000     -10.346517      -281.5430
  47   2.0000     -10.346144      -281.5329
  48   2.0000     -10.345529      -281.5162
  49   2.0000     -10.344045      -281.4758
  50   2.0000     -10.343651      -281.4651
  51   2.0000     -10.340661      -281.3837
  52   2.0000     -10.339236      -281.3449
  53   2.0000     -10.336334      -281.2660
  54   2.0000     -10.335361      -281.2395
  55   2.0000     -10.334364      -281.2123
  56   2.0000     -10.334327      -281.2113
  57   2.0000     -10.333622      -281.1922
  58   2.0000     -10.330586      -281.1095
  59   2.0000     -10.329940      -281.0920
  60   2.0000     -10.328844      -281.0621
  61   2.0000     -10.328611      -281.0558
  62   2.0000     -10.327704      -281.0311
  63   2.0000     -10.317505      -280.7536
  64   2.0000     -10.316188      -280.7178
  65   2.0000     -10.315326      -280.6943
  66   2.0000     -10.313766      -280.6518
  67   2.0000     -10.297136      -280.1993
  68   2.0000     -10.286439      -279.9082
  69   2.0000      -8.143536      -221.5969
  70   2.0000      -8.112006      -220.7389
  71   2.0000      -8.104913      -220.5459
  72   2.0000      -8.104402      -220.5320
  73   2.0000      -8.103022      -220.4944
  74   2.0000      -6.105326      -166.1344
  75   2.0000      -6.097441      -165.9198
  76   2.0000      -6.095247      -165.8601
  77   2.0000      -6.071929      -165.2256
  78   2.0000      -6.067713      -165.1109
  79   2.0000      -6.065027      -165.0378
  80   2.0000      -6.064500      -165.0234
  81   2.0000      -6.063578      -164.9984
  82   2.0000      -6.063147      -164.9866
  83   2.0000      -6.060893      -164.9253
  84   2.0000      -6.059759      -164.8944
  85   2.0000      -6.059104      -164.8766
  86   2.0000      -6.056135      -164.7958
  87   2.0000      -6.056050      -164.7935
  88   2.0000      -6.054033      -164.7386
  89   2.0000      -1.348530       -36.6954
  90   2.0000      -1.346900       -36.6510
  91   2.0000      -1.175850       -31.9965
  92   2.0000      -1.174003       -31.9462
  93   2.0000      -1.159328       -31.5469
  94   2.0000      -1.151502       -31.3340
  95   2.0000      -1.144819       -31.1521
  96   2.0000      -1.061484       -28.8844
  97   2.0000      -1.060419       -28.8555
  98   2.0000      -1.055202       -28.7135
  99   2.0000      -1.052032       -28.6273
 100   2.0000      -1.040893       -28.3241
 101   2.0000      -1.040732       -28.3198
 102   2.0000      -1.033993       -28.1364
 103   2.0000      -1.032714       -28.1016
 104   2.0000      -1.013944       -27.5908
 105   2.0000      -1.007816       -27.4241
 106   2.0000      -0.999514       -27.1982
 107   2.0000      -0.995939       -27.1009
 108   2.0000      -0.989818       -26.9343
 109   2.0000      -0.984451       -26.7883
 110   2.0000      -0.953020       -25.9330
 111   2.0000      -0.943537       -25.6749
 112   2.0000      -0.940593       -25.5948
 113   2.0000      -0.937071       -25.4990
 114   2.0000      -0.936147       -25.4739
 115   2.0000      -0.930770       -25.3275
 116   2.0000      -0.922153       -25.0931
 117   2.0000      -0.918889       -25.0042
 118   2.0000      -0.908654       -24.7257
 119   2.0000      -0.906969       -24.6799
 120   2.0000      -0.897443       -24.4207
 121   2.0000      -0.886665       -24.1274
 122   2.0000      -0.870982       -23.7006
 123   2.0000      -0.868040       -23.6206
 124   2.0000      -0.862691       -23.4750
 125   2.0000      -0.851431       -23.1686
 126   2.0000      -0.841131       -22.8883
 127   2.0000      -0.837419       -22.7873
 128   2.0000      -0.829425       -22.5698
 129   2.0000      -0.811015       -22.0689
 130   2.0000      -0.807865       -21.9831
 131   2.0000      -0.797969       -21.7138
 132   2.0000      -0.794067       -21.6077
 133   2.0000      -0.790275       -21.5045
 134   2.0000      -0.776837       -21.1388
 135   2.0000      -0.764102       -20.7923
 136   2.0000      -0.759314       -20.6620
 137   2.0000      -0.754423       -20.5289
 138   2.0000      -0.746136       -20.3034
 139   2.0000      -0.741774       -20.1847
 140   2.0000      -0.737743       -20.0750
 141   2.0000      -0.734600       -19.9895
 142   2.0000      -0.731085       -19.8938
 143   2.0000      -0.726230       -19.7617
 144   2.0000      -0.712566       -19.3899
 145   2.0000      -0.703961       -19.1558
 146   2.0000      -0.697997       -18.9935
 147   2.0000      -0.692370       -18.8404
 148   2.0000      -0.686369       -18.6770
 149   2.0000      -0.678148       -18.4533
 150   2.0000      -0.670601       -18.2480
 151   2.0000      -0.669475       -18.2173
 152   2.0000      -0.669106       -18.2073
 153   2.0000      -0.664014       -18.0687
 154   2.0000      -0.659213       -17.9381
 155   2.0000      -0.651259       -17.7217
 156   2.0000      -0.649927       -17.6854
 157   2.0000      -0.637903       -17.3582
 158   2.0000      -0.634315       -17.2606
 159   2.0000      -0.629645       -17.1335
 160   2.0000      -0.624469       -16.9927
 161   2.0000      -0.617685       -16.8081
 162   2.0000      -0.614878       -16.7317
 163   2.0000      -0.611805       -16.6481
 164   2.0000      -0.605392       -16.4736
 165   2.0000      -0.601954       -16.3800
 166   2.0000      -0.600184       -16.3318
 167   2.0000      -0.598783       -16.2937
 168   2.0000      -0.596998       -16.2451
 169   2.0000      -0.594270       -16.1709
 170   2.0000      -0.590673       -16.0730
 171   2.0000      -0.590399       -16.0656
 172   2.0000      -0.581600       -15.8262
 173   2.0000      -0.579333       -15.7644
 174   2.0000      -0.576404       -15.6847
 175   2.0000      -0.575431       -15.6583
 176   2.0000      -0.574676       -15.6377
 177   2.0000      -0.572429       -15.5766
 178   2.0000      -0.570784       -15.5318
 179   2.0000      -0.567603       -15.4453
 180   2.0000      -0.566294       -15.4096
 181   2.0000      -0.563453       -15.3323
 182   2.0000      -0.561064       -15.2673
 183   2.0000      -0.558666       -15.2021
 184   2.0000      -0.551017       -14.9939
 185   2.0000      -0.548750       -14.9322
 186   2.0000      -0.544749       -14.8234
 187   2.0000      -0.541864       -14.7449
 188   2.0000      -0.538764       -14.6605
 189   2.0000      -0.535165       -14.5626
 190   2.0000      -0.533947       -14.5295
 191   2.0000      -0.530898       -14.4465
 192   2.0000      -0.530439       -14.4340
 193   2.0000      -0.529664       -14.4129
 194   2.0000      -0.527084       -14.3427
 195   2.0000      -0.525168       -14.2906
 196   2.0000      -0.523391       -14.2422
 197   2.0000      -0.521677       -14.1955
 198   2.0000      -0.517060       -14.0699
 199   2.0000      -0.513917       -13.9844
 200   2.0000      -0.512225       -13.9383
 201   2.0000      -0.508016       -13.8238
 202   2.0000      -0.506596       -13.7852
 203   2.0000      -0.505674       -13.7601
 204   2.0000      -0.500731       -13.6256
 205   2.0000      -0.495473       -13.4825
 206   2.0000      -0.493904       -13.4398
 207   2.0000      -0.491565       -13.3762
 208   2.0000      -0.489491       -13.3197
 209   2.0000      -0.488232       -13.2855
 210   2.0000      -0.487390       -13.2625
 211   2.0000      -0.485916       -13.2224
 212   2.0000      -0.485440       -13.2095
 213   2.0000      -0.484664       -13.1884
 214   2.0000      -0.483045       -13.1443
 215   2.0000      -0.479980       -13.0609
 216   2.0000      -0.478466       -13.0197
 217   2.0000      -0.477342       -12.9891
 218   2.0000      -0.473015       -12.8714
 219   2.0000      -0.469686       -12.7808
 220   2.0000      -0.466715       -12.7000
 221   2.0000      -0.464335       -12.6352
 222   2.0000      -0.464010       -12.6263
 223   2.0000      -0.462997       -12.5988
 224   2.0000      -0.461147       -12.5484
 225   2.0000      -0.458579       -12.4786
 226   2.0000      -0.456639       -12.4258
 227   2.0000      -0.454296       -12.3620
 228   2.0000      -0.450083       -12.2474
 229   2.0000      -0.447460       -12.1760
 230   2.0000      -0.446806       -12.1582
 231   2.0000      -0.445443       -12.1211
 232   2.0000      -0.443432       -12.0664
 233   2.0000      -0.441412       -12.0114
 234   2.0000      -0.436743       -11.8844
 235   2.0000      -0.435379       -11.8473
 236   2.0000      -0.432419       -11.7667
 237   2.0000      -0.427793       -11.6408
 238   2.0000      -0.405911       -11.0454
 239   2.0000      -0.400927       -10.9098
 240   2.0000      -0.398665       -10.8482
 241   2.0000      -0.385525       -10.4907
 242   2.0000      -0.378758       -10.3065
 243   2.0000      -0.375427       -10.2159
 244   2.0000      -0.373047       -10.1511
 245   2.0000      -0.370220       -10.0742
 246   2.0000      -0.368944       -10.0395
 247   2.0000      -0.357346        -9.7239
 248   2.0000      -0.352342        -9.5877
 249   2.0000      -0.347913        -9.4672
 250   2.0000      -0.338078        -9.1996
 251   2.0000      -0.321939        -8.7604
 252   2.0000      -0.307795        -8.3755
 253   2.0000      -0.306838        -8.3495
 254   2.0000      -0.269157        -7.3241
 255   0.0000      -0.077776        -2.1164
 256   0.0000      -0.067653        -1.8409
 257   0.0000      -0.042566        -1.1583
 258   0.0000      -0.037648        -1.0244
 259   0.0000      -0.017856        -0.4859

MULLIKEN ATOMIC CHARGES
-----------------------
   0 C :    0.232934
   1 O :   -0.211063
   2 C :   -0.063146
   3 C :   -0.015176
   4 C :   -0.064548
   5 C :    0.311722
   6 F :   -0.195918
   7 C :   -0.089898
   8 C :    0.018309
   9 C :    0.290200
  10 C :   -0.382027
  11 C :   -0.117555
  12 N :    0.093960
  13 C :   -0.130674
  14 N :    0.109611
  15 C :   -0.154963
  16 C :    0.001242
  17 C :   -0.107298
  18 S :    0.186949
  19 C :   -0.013905
  20 C :   -0.094187
  21 C :   -0.083958
  22 C :    0.008746
  23 C :   -0.013072
  24 S :    0.203939
  25 C :   -0.051390
  26 C :    0.034176
  27 N :   -0.247511
  28 C :    0.038756
  29 C :    0.109159
  30 C :   -0.121849
  31 C :    0.020450
  32 N :   -0.297113
  33 S :    0.481418
  34 N :   -0.296800
  35 C :    0.016061
  36 C :   -0.104382
  37 C :    0.092633
  38 N :   -0.249321
  39 C :    0.067218
  40 C :   -0.047431
  41 C :    0.043795
  42 C :   -0.059774
  43 S :    0.205290
  44 C :   -0.122936
  45 C :   -0.037345
  46 S :    0.144095
  47 C :   -0.158961
  48 C :   -0.012564
  49 C :    0.021078
  50 C :   -0.052593
  51 C :    0.027456
  52 C :   -0.148221
  53 C :    0.262826
  54 C :   -0.356321
  55 C :   -0.144945
  56 N :    0.113685
  57 C :   -0.130479
  58 N :    0.110072
  59 C :    0.029512
  60 C :   -0.096549
  61 C :    0.315364
  62 F :   -0.195388
  63 C :   -0.063743
  64 C :   -0.012291
  65 C :   -0.071278
  66 C :    0.201140
  67 O :   -0.172645
  68 C :   -0.040611
  69 H :    0.029278
  70 H :    0.039566
  71 H :    0.040083
  72 H :   -0.007413
  73 H :    0.039385
  74 H :    0.061589
  75 H :    0.036381
  76 H :    0.055035
  77 H :    0.032490
  78 H :    0.058798
  79 H :    0.064287
  80 H :    0.052602
  81 H :    0.026755
  82 H :    0.055874
  83 H :    0.054856
  84 H :    0.055947
  85 H :    0.028776
  86 H :    0.053402
  87 H :    0.065674
  88 H :    0.036430
  89 H :    0.034177
  90 H :    0.061510
  91 H :    0.041558
  92 H :    0.040947
  93 H :    0.032516
  94 H :    0.055962
  95 H :    0.037832
  96 H :    0.053736
Sum of atomic charges:   -0.0000000

LOEWDIN ATOMIC CHARGES
----------------------
   0 C :    0.092585
   1 O :   -0.176916
   2 C :   -0.061666
   3 C :    0.023559
   4 C :   -0.036417
   5 C :    0.109423
   6 F :   -0.061180
   7 C :   -0.027875
   8 C :   -0.006064
   9 C :    0.081851
  10 C :   -0.151473
  11 C :   -0.011496
  12 N :   -0.059931
  13 C :   -0.015080
  14 N :   -0.054436
  15 C :   -0.133503
  16 C :    0.066043
  17 C :   -0.197207
  18 S :    0.476982
  19 C :   -0.191685
  20 C :   -0.199167
  21 C :   -0.007546
  22 C :   -0.034095
  23 C :   -0.044293
  24 S :    0.416937
  25 C :   -0.164504
  26 C :   -0.046292
  27 N :    0.037862
  28 C :    0.038336
  29 C :    0.016475
  30 C :   -0.084212
  31 C :   -0.052384
  32 N :   -0.287293
  33 S :    0.599836
  34 N :   -0.286173
  35 C :   -0.054333
  36 C :   -0.075790
  37 C :    0.009627
  38 N :    0.030937
  39 C :    0.041352
  40 C :   -0.062314
  41 C :   -0.041437
  42 C :   -0.173299
  43 S :    0.434422
  44 C :   -0.191658
  45 C :   -0.193014
  46 S :    0.415650
  47 C :   -0.184009
  48 C :   -0.003674
  49 C :   -0.031613
  50 C :   -0.056527
  51 C :    0.058966
  52 C :   -0.116473
  53 C :    0.075700
  54 C :   -0.142076
  55 C :   -0.018698
  56 N :   -0.051375
  57 C :   -0.015018
  58 N :   -0.050518
  59 C :   -0.007004
  60 C :   -0.028672
  61 C :    0.110117
  62 F :   -0.060661
  63 C :   -0.034759
  64 C :    0.024788
  65 C :   -0.062406
  66 C :    0.089069
  67 O :   -0.138524
  68 C :   -0.068225
  69 H :    0.044942
  70 H :    0.046612
  71 H :    0.050963
  72 H :    0.047238
  73 H :    0.034282
  74 H :    0.040231
  75 H :    0.028391
  76 H :    0.035306
  77 H :    0.025665
  78 H :    0.030139
  79 H :    0.035987
  80 H :    0.027171
  81 H :    0.024940
  82 H :    0.036499
  83 H :    0.036656
  84 H :    0.031222
  85 H :    0.030763
  86 H :    0.040390
  87 H :    0.030293
  88 H :    0.028622
  89 H :    0.013958
  90 H :    0.046564
  91 H :    0.051120
  92 H :    0.047259
  93 H :    0.046162
  94 H :    0.025099
  95 H :    0.027736
  96 H :    0.038238

  Mayer bond orders larger than 0.100000
B(  0-C ,  1-O ) :   2.1107 B(  0-C ,  2-C ) :   0.9742 B(  0-C , 15-C ) :   0.9784
B(  2-C ,  3-C ) :   1.3945 B(  2-C ,  8-C ) :   1.3358 B(  3-C ,  4-C ) :   1.3370
B(  3-C , 69-H ) :   1.0041 B(  4-C ,  5-C ) :   1.3757 B(  4-C , 70-H ) :   0.9907
B(  5-C ,  6-F ) :   1.0750 B(  5-C ,  7-C ) :   1.3342 B(  7-C ,  8-C ) :   1.3574
B(  7-C , 71-H ) :   0.9879 B(  8-C ,  9-C ) :   1.0032 B(  9-C , 10-C ) :   1.6285
B(  9-C , 15-C ) :   1.1099 B( 10-C , 11-C ) :   1.1407 B( 10-C , 13-C ) :   1.1297
B( 11-C , 12-N ) :   2.9521 B( 13-C , 14-N ) :   2.9748 B( 15-C , 16-C ) :   1.5151
B( 16-C , 17-C ) :   1.3222 B( 16-C , 72-H ) :   0.9277 B( 17-C , 18-S ) :   1.0407
B( 17-C , 21-C ) :   1.3822 B( 18-S , 19-C ) :   1.0342 B( 19-C , 20-C ) :   1.4054
B( 19-C , 26-C ) :   1.3176 B( 20-C , 21-C ) :   1.4553 B( 20-C , 24-S ) :   1.0191
B( 21-C , 22-C ) :   1.0548 B( 22-C , 23-C ) :   1.0886 B( 22-C , 73-H ) :   0.9319
B( 22-C , 74-H ) :   0.9126 B( 23-C , 75-H ) :   0.9698 B( 23-C , 76-H ) :   0.9714
B( 23-C , 77-H ) :   0.9734 B( 24-S , 25-C ) :   1.0243 B( 25-C , 26-C ) :   1.4145
B( 25-C , 30-C ) :   1.3863 B( 26-C , 27-N ) :   1.1382 B( 27-N , 28-C ) :   0.9200
B( 27-N , 29-C ) :   1.1762 B( 28-C , 68-C ) :   1.0833 B( 28-C , 78-H ) :   0.9587
B( 28-C , 79-H ) :   0.9495 B( 29-C , 30-C ) :   1.3815 B( 29-C , 37-C ) :   1.1357
B( 30-C , 31-C ) :   1.1358 B( 31-C , 32-N ) :   1.6191 B( 31-C , 35-C ) :   1.1403
B( 32-N , 33-S ) :   1.2290 B( 32-N , 34-N ) :   0.1309 B( 33-S , 34-N ) :   1.2312
B( 34-N , 35-C ) :   1.6170 B( 35-C , 36-C ) :   1.1329 B( 36-C , 37-C ) :   1.4054
B( 36-C , 42-C ) :   1.3724 B( 37-C , 38-N ) :   1.1526 B( 38-N , 39-C ) :   0.9409
B( 38-N , 41-C ) :   1.1403 B( 39-C , 40-C ) :   1.0966 B( 39-C , 80-H ) :   0.9456
B( 39-C , 81-H ) :   0.9471 B( 40-C , 82-H ) :   0.9640 B( 40-C , 83-H ) :   0.9687
B( 40-C , 84-H ) :   0.9626 B( 41-C , 42-C ) :   1.4221 B( 41-C , 45-C ) :   1.3067
B( 42-C , 43-S ) :   1.0288 B( 43-S , 44-C ) :   1.0401 B( 44-C , 45-C ) :   1.4539
B( 44-C , 48-C ) :   1.3573 B( 45-C , 46-S ) :   1.0725 B( 46-S , 47-C ) :   1.0473
B( 47-C , 48-C ) :   1.5022 B( 47-C , 51-C ) :   1.1831 B( 48-C , 49-C ) :   1.0535
B( 49-C , 50-C ) :   1.0771 B( 49-C , 85-H ) :   0.9239 B( 49-C , 86-H ) :   0.9356
B( 50-C , 87-H ) :   0.9617 B( 50-C , 88-H ) :   0.9687 B( 50-C , 89-H ) :   0.9692
B( 51-C , 52-C ) :   1.6143 B( 51-C , 90-H ) :   0.9297 B( 52-C , 53-C ) :   1.0894
B( 52-C , 66-C ) :   0.9613 B( 53-C , 54-C ) :   1.6552 B( 53-C , 59-C ) :   1.0127
B( 54-C , 55-C ) :   1.1306 B( 54-C , 57-C ) :   1.1252 B( 55-C , 56-N ) :   2.9858
B( 57-C , 58-N ) :   2.9772 B( 59-C , 60-C ) :   1.3488 B( 59-C , 65-C ) :   1.3317
B( 60-C , 61-C ) :   1.3388 B( 60-C , 91-H ) :   0.9894 B( 61-C , 62-F ) :   1.0747
B( 61-C , 63-C ) :   1.3697 B( 63-C , 64-C ) :   1.3428 B( 63-C , 92-H ) :   0.9911
B( 64-C , 65-C ) :   1.3928 B( 64-C , 93-H ) :   1.0044 B( 65-C , 66-C ) :   0.9469
B( 66-C , 67-O ) :   2.1675 B( 68-C , 94-H ) :   0.9569 B( 68-C , 95-H ) :   0.9663
B( 68-C , 96-H ) :   0.9678

-----------------------------------------------------------------------------
         ABSORPTION SPECTRUM VIA TRANSITION ELECTRIC DIPOLE MOMENTS
-----------------------------------------------------------------------------
State   Energy  Wavelength   fosc         T2         TX        TY        TZ
        (cm-1)    (nm)                  (au**2)     (au)      (au)      (au)
-----------------------------------------------------------------------------
   0   19663.1    508.6   3.038458195  50.87184  -2.86233   6.51906   0.42520
   1   25165.4    397.4   0.881878521  11.53669   0.53624  -0.53228   3.31147
   2   28956.4    345.3   0.098104377   1.11537   0.34374  -0.47806   0.87674
   3   29625.3    337.5   0.052766121   0.58637  -0.17235   0.61565   0.42147
   4   29764.2    336.0   0.183139221   2.02564  -0.43110   0.08279   1.35386
   5   30710.8    325.6   0.208403732   2.23403   0.49460  -1.18292   0.76819
   6   31754.9    314.9   0.014657762   0.15196   0.18537   0.23348  -0.25117
   7   32933.3    303.6   0.042391265   0.42376  -0.62307   0.13781  -0.12865
   8   34531.7    289.6   0.039596078   0.37749  -0.53879  -0.14295  -0.25838
   9   35575.6    281.1   0.351416358   3.25196   0.32482   0.19258   1.76334
  10   37143.1    269.2   0.415562511   3.68328  -1.91603   0.10729  -0.02400
  11   38028.7    263.0   0.719858976   6.23177   1.12569  -0.32218  -2.20472
  12   38309.7    261.0   0.129566779   1.11342  -0.42316   0.81761   0.51563
  13   39238.2    254.9   0.127556608   1.07021  -0.44419  -0.22201  -0.90753
  14   39683.9    252.0   0.149714417   1.24201  -0.77336   0.64334   0.47961
  15   39901.1    250.6   0.221851996   1.83043  -0.87470  -0.79217  -0.66168

Dispersion correction           -0.063668478
FINAL SINGLE POINT ENERGY     -4773.966855455706

DIPOLE MOMENT
-------------
                                X             Y             Z
Electronic contribution:     -3.02571       3.40346       4.51497
Nuclear contribution   :      1.00734      -3.10316      -4.19030
                        -----------------------------------------
Total Dipole Moment    :     -2.01837       0.30029       0.32466
                        -----------------------------------------
Magnitude (a.u.)       :      2.06625
Magnitude (Debye)      :      5.25199

Rotational constants in cm-1:     0.001865     0.000280     0.000251
Rotational constants in MHz :    55.922671     8.383364     7.522845

                             ****ORCA TERMINATED NORMALLY****
TOTAL RUN TIME: 0 days 0 hours 10 minutes 30 seconds 327 msec
