                         Program Version 4.2.0 -  RELEASE  -
|  1> # ORCA input file
|  2> # SCF done       -206.017552557821          0.000872291820
|  3> ! wb97x-d3 def2-SVP def2/J RIJCOSX Grid4 TightSCF
|  4> %maxcore 5000
|  5> %tddft
|  6>     Mode sTDA
|  7>     Ethresh 5.0
|  8>     maxcore 5000
|  9> end
| 10>
| 11> %pal
| 12>   nprocs 6
| 13>   end
| 14> * xyz 0 1
| 15>    C       -6.65189        -1.56329        -0.30330
| 16>    O       -6.39495        -2.72176        -0.02512
| 17>    C       -7.66389        -0.71736         0.36422
| 18>    C       -8.50843        -1.04812         1.40333
| 19>    C       -9.38127        -0.06552         1.85743
| 20>    C      -10.34664        -0.36028         2.97238
| 21>    C       -9.40303         1.19958         1.27912
| 22>    C       -8.54915         1.52277         0.23408
| 23>    C       -7.66988         0.55584        -0.22870
| 24>    C       -6.66187         0.58064        -1.29367
| 25>    C       -6.36400         1.67627        -2.06356
| 26>    C       -7.00122         2.92922        -1.93953
| 27>    N       -7.47623         3.97323        -1.89322
| 28>    C       -5.38210         1.73152        -3.07486
| 29>    N       -4.59987         1.85773        -3.90691
| 30>    C       -6.05255        -0.73108        -1.34434
| 31>    C       -5.08288        -1.12497        -2.24097
| 32>    C       -4.39765        -2.33190        -2.37604
| 33>    S       -4.62874        -3.74849        -1.34643
| 34>    C       -3.39328        -4.58776        -2.20286
| 35>    C       -2.84674        -3.80823        -3.24033
| 36>    C       -3.40447        -2.54446        -3.35362
| 37>    C       -2.93620        -1.54241        -4.35665
| 38>    C       -1.86471        -0.62909        -3.75400
| 39>    S       -1.57795        -4.62247        -4.13852
| 40>    C       -1.78535        -5.99996        -3.11492
| 41>    C       -2.77480        -5.83802        -2.13777
| 42>    N       -2.87871        -6.97672        -1.38694
| 43>    C       -3.94880        -7.06328        -0.41934
| 44>    C       -1.94285        -7.88495        -1.84430
| 45>    C       -1.26476        -7.28753        -2.95404
| 46>    C       -0.29698        -7.97590        -3.71778
| 47>    N        0.37878        -7.55170        -4.77421
| 48>    S        1.32960        -8.75608        -5.28975
| 49>    N        0.91680        -9.86239        -4.18287
| 50>    C        0.01861        -9.32642        -3.37122
| 51>    C       -0.59838        -9.89744        -2.23682
| 52>    C       -1.55204        -9.19307        -1.43781
| 53>    N       -1.87134        -9.99913        -0.35971
| 54>    C       -2.68161        -9.80120         0.81928
| 55>    C       -4.03875       -10.49331         0.69257
| 56>    C       -1.17790       -11.17134        -0.47987
| 57>    C       -0.38443       -11.14063        -1.63170
| 58>    S        0.58192       -12.55522        -1.85247
| 59>    C       -0.07577       -13.20834        -0.36721
| 60>    C       -0.99597       -12.34730         0.25168
| 61>    S       -1.54884       -13.00114         1.74407
| 62>    C       -0.57630       -14.45634         1.50051
| 63>    C        0.17138       -14.39886         0.32551
| 64>    C        1.25153       -15.34526        -0.08663
| 65>    C        0.97996       -15.97557        -1.45292
| 66>    C       -0.56154       -15.37518         2.56806
| 67>    C       -0.38491       -16.73275         2.49052
| 68>    C       -0.09263       -17.62238         3.58949
| 69>    C        0.31545       -17.25702         4.84668
| 70>    C        0.60899       -18.16849         5.88178
| 71>    N        0.85352       -18.86009         6.76467
| 72>    C        0.52128       -15.92498         5.26394
| 73>    N        0.73231       -14.86774         5.65983
| 74>    C       -0.20511       -18.99452         3.09238
| 75>    C       -0.01682       -20.21648         3.71972
| 76>    C       -0.17181       -21.37653         2.97472
| 77>    C       -0.51847       -21.32047         1.62872
| 78>    C       -0.63335       -22.60339         0.85176
| 79>    C       -0.72022       -20.10267         0.98698
| 80>    C       -0.55534       -18.95368         1.73230
| 81>    C       -0.71340       -17.54518         1.29945
| 82>    O       -1.15226       -17.16252         0.23742
| 83>    C       -3.59717        -6.34939         0.88600
| 84>    F        0.56786       -23.02566         0.40961
| 85>    F       -1.13496       -23.60817         1.58557
| 86>    F       -1.41379       -22.49031        -0.23042
| 87>    F      -10.06532        -1.49396         3.62618
| 88>    F      -10.37598         0.61740         3.89287
| 89>    F      -11.60933        -0.48522         2.52045
| 90>    H       -8.48270        -2.03337         1.84244
| 91>    H      -10.09357         1.93998         1.65344
| 92>    H       -8.58708         2.50983        -0.19534
| 93>    H       -4.78462        -0.38074        -2.96653
| 94>    H       -2.50675        -2.08320        -5.20236
| 95>    H       -3.76471        -0.93544        -4.72368
| 96>    H       -1.01357        -1.21597        -3.41700
| 97>    H       -1.52604         0.08134        -4.50224
| 98>    H       -2.26259        -0.07311        -2.90851
| 99>    H       -4.81982        -6.56574        -0.85832
|100>    H       -4.21311        -8.10446        -0.25847
|101>    H       -2.14015       -10.24838         1.65980
|102>    H       -2.78348        -8.74027         1.02376
|103>    H       -3.90493       -11.57084         0.64566
|104>    H       -4.65345       -10.26099         1.55744
|105>    H       -4.56356       -10.18155        -0.20837
|106>    H        2.18429       -14.77438        -0.14187
|107>    H        1.37415       -16.12420         0.66630
|108>    H        0.92895       -15.21080        -2.22317
|109>    H        1.78004       -16.66780        -1.70166
|110>    H        0.03902       -16.51746        -1.43378
|111>    H       -0.74121       -14.94140         3.54539
|112>    H        0.24331       -20.28386         4.76305
|113>    H       -0.02715       -22.33711         3.44518
|114>    H       -0.99437       -20.05004        -0.05538
|115>    H       -3.54170        -5.27712         0.72027
|116>    H       -4.36851        -6.53840         1.62691
|117>    H       -2.63745        -6.67927         1.27921
|118> *
|119>
|120>                          ****END OF INPUT****

CARTESIAN COORDINATES (ANGSTROEM)
---------------------------------
  C     -6.651890   -1.563290   -0.303300
  O     -6.394950   -2.721760   -0.025120
  C     -7.663890   -0.717360    0.364220
  C     -8.508430   -1.048120    1.403330
  C     -9.381270   -0.065520    1.857430
  C    -10.346640   -0.360280    2.972380
  C     -9.403030    1.199580    1.279120
  C     -8.549150    1.522770    0.234080
  C     -7.669880    0.555840   -0.228700
  C     -6.661870    0.580640   -1.293670
  C     -6.364000    1.676270   -2.063560
  C     -7.001220    2.929220   -1.939530
  N     -7.476230    3.973230   -1.893220
  C     -5.382100    1.731520   -3.074860
  N     -4.599870    1.857730   -3.906910
  C     -6.052550   -0.731080   -1.344340
  C     -5.082880   -1.124970   -2.240970
  C     -4.397650   -2.331900   -2.376040
  S     -4.628740   -3.748490   -1.346430
  C     -3.393280   -4.587760   -2.202860
  C     -2.846740   -3.808230   -3.240330
  C     -3.404470   -2.544460   -3.353620
  C     -2.936200   -1.542410   -4.356650
  C     -1.864710   -0.629090   -3.754000
  S     -1.577950   -4.622470   -4.138520
  C     -1.785350   -5.999960   -3.114920
  C     -2.774800   -5.838020   -2.137770
  N     -2.878710   -6.976720   -1.386940
  C     -3.948800   -7.063280   -0.419340
  C     -1.942850   -7.884950   -1.844300
  C     -1.264760   -7.287530   -2.954040
  C     -0.296980   -7.975900   -3.717780
  N      0.378780   -7.551700   -4.774210
  S      1.329600   -8.756080   -5.289750
  N      0.916800   -9.862390   -4.182870
  C      0.018610   -9.326420   -3.371220
  C     -0.598380   -9.897440   -2.236820
  C     -1.552040   -9.193070   -1.437810
  N     -1.871340   -9.999130   -0.359710
  C     -2.681610   -9.801200    0.819280
  C     -4.038750  -10.493310    0.692570
  C     -1.177900  -11.171340   -0.479870
  C     -0.384430  -11.140630   -1.631700
  S      0.581920  -12.555220   -1.852470
  C     -0.075770  -13.208340   -0.367210
  C     -0.995970  -12.347300    0.251680
  S     -1.548840  -13.001140    1.744070
  C     -0.576300  -14.456340    1.500510
  C      0.171380  -14.398860    0.325510
  C      1.251530  -15.345260   -0.086630
  C      0.979960  -15.975570   -1.452920
  C     -0.561540  -15.375180    2.568060
  C     -0.384910  -16.732750    2.490520
  C     -0.092630  -17.622380    3.589490
  C      0.315450  -17.257020    4.846680
  C      0.608990  -18.168490    5.881780
  N      0.853520  -18.860090    6.764670
  C      0.521280  -15.924980    5.263940
  N      0.732310  -14.867740    5.659830
  C     -0.205110  -18.994520    3.092380
  C     -0.016820  -20.216480    3.719720
  C     -0.171810  -21.376530    2.974720
  C     -0.518470  -21.320470    1.628720
  C     -0.633350  -22.603390    0.851760
  C     -0.720220  -20.102670    0.986980
  C     -0.555340  -18.953680    1.732300
  C     -0.713400  -17.545180    1.299450
  O     -1.152260  -17.162520    0.237420
  C     -3.597170   -6.349390    0.886000
  F      0.567860  -23.025660    0.409610
  F     -1.134960  -23.608170    1.585570
  F     -1.413790  -22.490310   -0.230420
  F    -10.065320   -1.493960    3.626180
  F    -10.375980    0.617400    3.892870
  F    -11.609330   -0.485220    2.520450
  H     -8.482700   -2.033370    1.842440
  H    -10.093570    1.939980    1.653440
  H     -8.587080    2.509830   -0.195340
  H     -4.784620   -0.380740   -2.966530
  H     -2.506750   -2.083200   -5.202360
  H     -3.764710   -0.935440   -4.723680
  H     -1.013570   -1.215970   -3.417000
  H     -1.526040    0.081340   -4.502240
  H     -2.262590   -0.073110   -2.908510
  H     -4.819820   -6.565740   -0.858320
  H     -4.213110   -8.104460   -0.258470
  H     -2.140150  -10.248380    1.659800
  H     -2.783480   -8.740270    1.023760
  H     -3.904930  -11.570840    0.645660
  H     -4.653450  -10.260990    1.557440
  H     -4.563560  -10.181550   -0.208370
  H      2.184290  -14.774380   -0.141870
  H      1.374150  -16.124200    0.666300
  H      0.928950  -15.210800   -2.223170
  H      1.780040  -16.667800   -1.701660
  H      0.039020  -16.517460   -1.433780
  H     -0.741210  -14.941400    3.545390
  H      0.243310  -20.283860    4.763050
  H     -0.027150  -22.337110    3.445180
  H     -0.994370  -20.050040   -0.055380
  H     -3.541700   -5.277120    0.720270
  H     -4.368510   -6.538400    1.626910
  H     -2.637450   -6.679270    1.279210

 Total Charge           Charge          ....    0
 Multiplicity           Mult            ....    1
 Number of Electrons    NEL             ....  558
 Basis Dimension        Dim             .... 1210

ORBITAL ENERGIES
----------------

  NO   OCC          E(Eh)            E(eV)
   0   2.0000     -89.033847     -2422.7341
   1   2.0000     -89.003824     -2421.9172
   2   2.0000     -88.997570     -2421.7470
   3   2.0000     -88.995417     -2421.6884
   4   2.0000     -88.993300     -2421.6308
   5   2.0000     -24.839992      -675.9305
   6   2.0000     -24.838525      -675.8906
   7   2.0000     -24.836904      -675.8465
   8   2.0000     -24.834774      -675.7885
   9   2.0000     -24.831358      -675.6956
  10   2.0000     -24.830397      -675.6694
  11   2.0000     -19.264226      -524.2062
  12   2.0000     -19.261157      -524.1227
  13   2.0000     -14.532094      -395.4384
  14   2.0000     -14.530943      -395.4071
  15   2.0000     -14.472606      -393.8196
  16   2.0000     -14.472494      -393.8166
  17   2.0000     -14.459780      -393.4706
  18   2.0000     -14.456243      -393.3744
  19   2.0000     -14.455083      -393.3428
  20   2.0000     -14.452721      -393.2785
  21   2.0000     -10.556667      -287.2615
  22   2.0000     -10.556570      -287.2589
  23   2.0000     -10.410771      -283.2915
  24   2.0000     -10.410737      -283.2906
  25   2.0000     -10.384852      -282.5862
  26   2.0000     -10.384790      -282.5845
  27   2.0000     -10.384589      -282.5790
  28   2.0000     -10.384107      -282.5659
  29   2.0000     -10.383757      -282.5564
  30   2.0000     -10.381498      -282.4949
  31   2.0000     -10.376718      -282.3648
  32   2.0000     -10.374545      -282.3057
  33   2.0000     -10.367879      -282.1243
  34   2.0000     -10.367037      -282.1014
  35   2.0000     -10.364800      -282.0406
  36   2.0000     -10.362681      -281.9829
  37   2.0000     -10.360989      -281.9368
  38   2.0000     -10.360308      -281.9183
  39   2.0000     -10.359646      -281.9003
  40   2.0000     -10.357041      -281.8294
  41   2.0000     -10.356950      -281.8269
  42   2.0000     -10.356519      -281.8152
  43   2.0000     -10.356201      -281.8066
  44   2.0000     -10.355981      -281.8006
  45   2.0000     -10.355206      -281.7795
  46   2.0000     -10.354585      -281.7626
  47   2.0000     -10.354391      -281.7573
  48   2.0000     -10.353382      -281.7299
  49   2.0000     -10.353202      -281.7249
  50   2.0000     -10.352311      -281.7007
  51   2.0000     -10.351633      -281.6823
  52   2.0000     -10.351183      -281.6700
  53   2.0000     -10.350197      -281.6432
  54   2.0000     -10.347799      -281.5779
  55   2.0000     -10.347409      -281.5673
  56   2.0000     -10.347036      -281.5572
  57   2.0000     -10.346564      -281.5443
  58   2.0000     -10.346189      -281.5341
  59   2.0000     -10.345798      -281.5235
  60   2.0000     -10.344854      -281.4978
  61   2.0000     -10.341988      -281.4198
  62   2.0000     -10.340781      -281.3870
  63   2.0000     -10.338993      -281.3383
  64   2.0000     -10.337413      -281.2953
  65   2.0000     -10.337042      -281.2852
  66   2.0000     -10.332959      -281.1741
  67   2.0000     -10.331877      -281.1447
  68   2.0000     -10.331370      -281.1309
  69   2.0000     -10.323354      -280.9127
  70   2.0000     -10.320964      -280.8477
  71   2.0000     -10.320130      -280.8250
  72   2.0000     -10.317588      -280.7558
  73   2.0000     -10.298227      -280.2290
  74   2.0000     -10.289618      -279.9947
  75   2.0000      -8.145091      -221.6392
  76   2.0000      -8.117001      -220.8748
  77   2.0000      -8.108586      -220.6458
  78   2.0000      -8.107903      -220.6273
  79   2.0000      -8.106048      -220.5768
  80   2.0000      -6.106875      -166.1765
  81   2.0000      -6.098998      -165.9622
  82   2.0000      -6.096761      -165.9013
  83   2.0000      -6.076870      -165.3600
  84   2.0000      -6.072707      -165.2468
  85   2.0000      -6.068679      -165.1371
  86   2.0000      -6.068655      -165.1365
  87   2.0000      -6.068031      -165.1195
  88   2.0000      -6.066185      -165.0693
  89   2.0000      -6.063943      -165.0083
  90   2.0000      -6.063902      -165.0072
  91   2.0000      -6.062136      -164.9591
  92   2.0000      -6.060302      -164.9092
  93   2.0000      -6.059001      -164.8738
  94   2.0000      -6.057024      -164.8200
  95   2.0000      -1.432447       -38.9789
  96   2.0000      -1.432410       -38.9778
  97   2.0000      -1.337589       -36.3977
  98   2.0000      -1.337491       -36.3950
  99   2.0000      -1.330955       -36.2171
 100   2.0000      -1.330746       -36.2115
 101   2.0000      -1.182064       -32.1656
 102   2.0000      -1.179312       -32.0907
 103   2.0000      -1.162770       -31.6406
 104   2.0000      -1.153940       -31.4003
 105   2.0000      -1.149595       -31.2821
 106   2.0000      -1.064907       -28.9776
 107   2.0000      -1.064679       -28.9714
 108   2.0000      -1.059319       -28.8255
 109   2.0000      -1.055846       -28.7310
 110   2.0000      -1.046296       -28.4712
 111   2.0000      -1.045239       -28.4424
 112   2.0000      -1.036657       -28.2089
 113   2.0000      -1.036644       -28.2085
 114   2.0000      -1.016409       -27.6579
 115   2.0000      -1.012383       -27.5484
 116   2.0000      -1.006826       -27.3971
 117   2.0000      -1.005027       -27.3482
 118   2.0000      -0.996571       -27.1181
 119   2.0000      -0.989641       -26.9295
 120   2.0000      -0.958022       -26.0691
 121   2.0000      -0.949042       -25.8247
 122   2.0000      -0.948409       -25.8075
 123   2.0000      -0.941423       -25.6174
 124   2.0000      -0.939928       -25.5767
 125   2.0000      -0.939314       -25.5600
 126   2.0000      -0.932116       -25.3642
 127   2.0000      -0.930648       -25.3242
 128   2.0000      -0.916720       -24.9452
 129   2.0000      -0.915334       -24.9075
 130   2.0000      -0.900697       -24.5092
 131   2.0000      -0.891636       -24.2627
 132   2.0000      -0.881417       -23.9846
 133   2.0000      -0.875583       -23.8258
 134   2.0000      -0.870206       -23.6795
 135   2.0000      -0.869438       -23.6586
 136   2.0000      -0.848970       -23.1017
 137   2.0000      -0.844850       -22.9895
 138   2.0000      -0.841714       -22.9042
 139   2.0000      -0.831526       -22.6270
 140   2.0000      -0.820763       -22.3341
 141   2.0000      -0.810730       -22.0611
 142   2.0000      -0.807757       -21.9802
 143   2.0000      -0.800662       -21.7871
 144   2.0000      -0.796357       -21.6700
 145   2.0000      -0.792863       -21.5749
 146   2.0000      -0.776789       -21.1375
 147   2.0000      -0.765527       -20.8311
 148   2.0000      -0.762734       -20.7550
 149   2.0000      -0.757187       -20.6041
 150   2.0000      -0.751466       -20.4484
 151   2.0000      -0.750332       -20.4176
 152   2.0000      -0.745414       -20.2837
 153   2.0000      -0.740811       -20.1585
 154   2.0000      -0.735238       -20.0069
 155   2.0000      -0.729504       -19.8508
 156   2.0000      -0.718256       -19.5447
 157   2.0000      -0.714991       -19.4559
 158   2.0000      -0.713273       -19.4091
 159   2.0000      -0.711386       -19.3578
 160   2.0000      -0.709762       -19.3136
 161   2.0000      -0.709697       -19.3118
 162   2.0000      -0.706328       -19.2202
 163   2.0000      -0.703102       -19.1324
 164   2.0000      -0.699969       -19.0471
 165   2.0000      -0.693093       -18.8600
 166   2.0000      -0.679572       -18.4921
 167   2.0000      -0.672058       -18.2876
 168   2.0000      -0.667306       -18.1583
 169   2.0000      -0.660515       -17.9735
 170   2.0000      -0.659398       -17.9431
 171   2.0000      -0.654987       -17.8231
 172   2.0000      -0.652813       -17.7639
 173   2.0000      -0.636309       -17.3148
 174   2.0000      -0.634369       -17.2621
 175   2.0000      -0.627078       -17.0637
 176   2.0000      -0.626448       -17.0465
 177   2.0000      -0.621582       -16.9141
 178   2.0000      -0.616191       -16.7674
 179   2.0000      -0.613653       -16.6984
 180   2.0000      -0.611917       -16.6511
 181   2.0000      -0.608449       -16.5567
 182   2.0000      -0.603258       -16.4155
 183   2.0000      -0.597405       -16.2562
 184   2.0000      -0.593242       -16.1429
 185   2.0000      -0.591014       -16.0823
 186   2.0000      -0.589537       -16.0421
 187   2.0000      -0.587667       -15.9912
 188   2.0000      -0.586800       -15.9676
 189   2.0000      -0.585380       -15.9290
 190   2.0000      -0.584220       -15.8974
 191   2.0000      -0.583516       -15.8783
 192   2.0000      -0.582454       -15.8494
 193   2.0000      -0.580713       -15.8020
 194   2.0000      -0.576630       -15.6909
 195   2.0000      -0.576405       -15.6848
 196   2.0000      -0.575523       -15.6608
 197   2.0000      -0.570554       -15.5256
 198   2.0000      -0.570024       -15.5111
 199   2.0000      -0.567734       -15.4488
 200   2.0000      -0.565740       -15.3946
 201   2.0000      -0.563322       -15.3288
 202   2.0000      -0.558972       -15.2104
 203   2.0000      -0.555675       -15.1207
 204   2.0000      -0.550887       -14.9904
 205   2.0000      -0.549289       -14.9469
 206   2.0000      -0.546885       -14.8815
 207   2.0000      -0.546384       -14.8679
 208   2.0000      -0.545443       -14.8423
 209   2.0000      -0.541053       -14.7228
 210   2.0000      -0.539483       -14.6801
 211   2.0000      -0.539328       -14.6759
 212   2.0000      -0.538237       -14.6462
 213   2.0000      -0.534621       -14.5478
 214   2.0000      -0.533169       -14.5083
 215   2.0000      -0.531846       -14.4723
 216   2.0000      -0.527221       -14.3464
 217   2.0000      -0.525123       -14.2893
 218   2.0000      -0.521932       -14.2025
 219   2.0000      -0.521866       -14.2007
 220   2.0000      -0.521252       -14.1840
 221   2.0000      -0.520416       -14.1612
 222   2.0000      -0.518103       -14.0983
 223   2.0000      -0.515034       -14.0148
 224   2.0000      -0.510460       -13.8903
 225   2.0000      -0.508492       -13.8368
 226   2.0000      -0.506798       -13.7907
 227   2.0000      -0.504807       -13.7365
 228   2.0000      -0.501613       -13.6496
 229   2.0000      -0.500548       -13.6206
 230   2.0000      -0.499335       -13.5876
 231   2.0000      -0.496659       -13.5148
 232   2.0000      -0.493523       -13.4294
 233   2.0000      -0.493192       -13.4204
 234   2.0000      -0.492220       -13.3940
 235   2.0000      -0.490611       -13.3502
 236   2.0000      -0.488804       -13.3010
 237   2.0000      -0.488503       -13.2928
 238   2.0000      -0.488118       -13.2824
 239   2.0000      -0.482927       -13.1411
 240   2.0000      -0.482270       -13.1232
 241   2.0000      -0.481909       -13.1134
 242   2.0000      -0.478562       -13.0223
 243   2.0000      -0.473779       -12.8922
 244   2.0000      -0.470729       -12.8092
 245   2.0000      -0.467906       -12.7324
 246   2.0000      -0.467401       -12.7186
 247   2.0000      -0.467115       -12.7108
 248   2.0000      -0.464314       -12.6346
 249   2.0000      -0.461632       -12.5617
 250   2.0000      -0.459314       -12.4986
 251   2.0000      -0.458539       -12.4775
 252   2.0000      -0.455209       -12.3869
 253   2.0000      -0.451813       -12.2945
 254   2.0000      -0.450441       -12.2571
 255   2.0000      -0.448770       -12.2117
 256   2.0000      -0.446897       -12.1607
 257   2.0000      -0.445365       -12.1190
 258   2.0000      -0.441063       -12.0019
 259   2.0000      -0.439267       -11.9531
 260   2.0000      -0.435816       -11.8592
 261   2.0000      -0.429363       -11.6836
 262   2.0000      -0.410033       -11.1576
 263   2.0000      -0.404988       -11.0203
 264   2.0000      -0.400874       -10.9083
 265   2.0000      -0.390692       -10.6313
 266   2.0000      -0.389868       -10.6089
 267   2.0000      -0.387158       -10.5351
 268   2.0000      -0.381483       -10.3807
 269   2.0000      -0.374413       -10.1883
 270   2.0000      -0.373768       -10.1707
 271   2.0000      -0.366996        -9.9865
 272   2.0000      -0.359434        -9.7807
 273   2.0000      -0.351621        -9.5681
 274   2.0000      -0.340968        -9.2782
 275   2.0000      -0.324931        -8.8418
 276   2.0000      -0.311385        -8.4732
 277   2.0000      -0.308669        -8.3993
 278   2.0000      -0.272639        -7.4189
 279   0.0000      -0.082696        -2.2503
 280   0.0000      -0.072412        -1.9704
 281   0.0000      -0.050385        -1.3711
 282   0.0000      -0.046215        -1.2576
 283   0.0000      -0.020688        -0.5629

MULLIKEN ATOMIC CHARGES
-----------------------
   0 C :    0.234027
   1 O :   -0.207473
   2 C :   -0.054391
   3 C :   -0.014407
   4 C :   -0.154162
   5 C :    0.596390
   6 C :    0.027947
   7 C :   -0.023929
   8 C :    0.015641
   9 C :    0.292566
  10 C :   -0.382481
  11 C :   -0.130783
  12 N :    0.109259
  13 C :   -0.121095
  14 N :    0.099003
  15 C :   -0.154777
  16 C :    0.006982
  17 C :   -0.107082
  18 S :    0.188927
  19 C :   -0.015927
  20 C :   -0.091131
  21 C :   -0.083891
  22 C :    0.005655
  23 C :   -0.010772
  24 S :    0.207365
  25 C :   -0.049241
  26 C :    0.038376
  27 N :   -0.249311
  28 C :    0.051805
  29 C :    0.123239
  30 C :   -0.135754
  31 C :    0.023963
  32 N :   -0.298965
  33 S :    0.483743
  34 N :   -0.300129
  35 C :    0.020946
  36 C :   -0.126626
  37 C :    0.116435
  38 N :   -0.249244
  39 C :    0.059930
  40 C :   -0.045329
  41 C :    0.044228
  42 C :   -0.055873
  43 S :    0.209386
  44 C :   -0.124036
  45 C :   -0.035442
  46 S :    0.155781
  47 C :   -0.163340
  48 C :   -0.007647
  49 C :    0.012476
  50 C :   -0.055332
  51 C :    0.038534
  52 C :   -0.161750
  53 C :    0.271609
  54 C :   -0.360335
  55 C :   -0.127121
  56 N :    0.109893
  57 C :   -0.146996
  58 N :    0.117324
  59 C :    0.026202
  60 C :   -0.028869
  61 C :    0.028557
  62 C :   -0.154377
  63 C :    0.594798
  64 C :   -0.010066
  65 C :   -0.065277
  66 C :    0.202869
  67 O :   -0.166778
  68 C :   -0.043062
  69 F :   -0.179062
  70 F :   -0.175560
  71 F :   -0.171002
  72 F :   -0.169930
  73 F :   -0.178999
  74 F :   -0.180001
  75 H :    0.034698
  76 H :    0.043334
  77 H :    0.035805
  78 H :   -0.006102
  79 H :    0.041345
  80 H :    0.058615
  81 H :    0.035746
  82 H :    0.057149
  83 H :    0.033592
  84 H :    0.064241
  85 H :    0.026307
  86 H :    0.057505
  87 H :    0.025821
  88 H :    0.051060
  89 H :    0.056575
  90 H :    0.059020
  91 H :    0.055691
  92 H :    0.031229
  93 H :    0.035974
  94 H :    0.040039
  95 H :    0.067526
  96 H :    0.062293
  97 H :    0.037576
  98 H :    0.042527
  99 H :    0.038296
 100 H :    0.054424
 101 H :    0.057426
 102 H :    0.056185
Sum of atomic charges:   -0.0000000

LOEWDIN ATOMIC CHARGES
----------------------
   0 C :    0.092194
   1 O :   -0.172065
   2 C :   -0.044003
   3 C :    0.027756
   4 C :   -0.074114
   5 C :    0.181999
   6 C :    0.020552
   7 C :    0.006720
   8 C :   -0.005383
   9 C :    0.080323
  10 C :   -0.150283
  11 C :   -0.014899
  12 N :   -0.054561
  13 C :   -0.012360
  14 N :   -0.057866
  15 C :   -0.136342
  16 C :    0.068688
  17 C :   -0.196662
  18 S :    0.475991
  19 C :   -0.189630
  20 C :   -0.198257
  21 C :   -0.004800
  22 C :   -0.033905
  23 C :   -0.043604
  24 S :    0.418639
  25 C :   -0.163319
  26 C :   -0.046442
  27 N :    0.041345
  28 C :    0.036312
  29 C :    0.017861
  30 C :   -0.083180
  31 C :   -0.053662
  32 N :   -0.287221
  33 S :    0.600943
  34 N :   -0.287275
  35 C :   -0.054007
  36 C :   -0.080578
  37 C :    0.014169
  38 N :    0.040907
  39 C :    0.036879
  40 C :   -0.065289
  41 C :   -0.042689
  42 C :   -0.169826
  43 S :    0.436415
  44 C :   -0.191300
  45 C :   -0.189529
  46 S :    0.420625
  47 C :   -0.185172
  48 C :    0.000674
  49 C :   -0.032073
  50 C :   -0.056275
  51 C :    0.062964
  52 C :   -0.121787
  53 C :    0.074108
  54 C :   -0.142029
  55 C :   -0.014876
  56 N :   -0.051203
  57 C :   -0.019125
  58 N :   -0.050416
  59 C :   -0.006431
  60 C :    0.006233
  61 C :    0.019466
  62 C :   -0.073303
  63 C :    0.181992
  64 C :    0.030475
  65 C :   -0.045168
  66 C :    0.088270
  67 O :   -0.134027
  68 C :   -0.066255
  69 F :   -0.071572
  70 F :   -0.061283
  71 F :   -0.057446
  72 F :   -0.057188
  73 F :   -0.064371
  74 F :   -0.070437
  75 H :    0.047039
  76 H :    0.046157
  77 H :    0.045187
  78 H :    0.047696
  79 H :    0.035289
  80 H :    0.039175
  81 H :    0.027561
  82 H :    0.036388
  83 H :    0.026085
  84 H :    0.035437
  85 H :    0.027642
  86 H :    0.032103
  87 H :    0.028989
  88 H :    0.029507
  89 H :    0.038088
  90 H :    0.029545
  91 H :    0.041180
  92 H :    0.031077
  93 H :    0.014795
  94 H :    0.029849
  95 H :    0.030627
  96 H :    0.046933
  97 H :    0.045369
  98 H :    0.045730
  99 H :    0.048483
 100 H :    0.027854
 101 H :    0.038901
 102 H :    0.028304

  Mayer bond orders larger than 0.100000
B(  0-C ,  1-O ) :   2.1131 B(  0-C ,  2-C ) :   0.9592 B(  0-C , 15-C ) :   0.9893
B(  2-C ,  3-C ) :   1.3846 B(  2-C ,  8-C ) :   1.3460 B(  3-C ,  4-C ) :   1.3547
B(  3-C , 75-H ) :   1.0083 B(  4-C ,  5-C ) :   0.9498 B(  4-C ,  6-C ) :   1.3867
B(  5-C , 72-F ) :   1.1438 B(  5-C , 73-F ) :   1.1352 B(  5-C , 74-F ) :   1.1505
B(  6-C ,  7-C ) :   1.3864 B(  6-C , 76-H ) :   0.9882 B(  7-C ,  8-C ) :   1.3885
B(  7-C , 77-H ) :   0.9849 B(  8-C ,  9-C ) :   0.9926 B(  9-C , 10-C ) :   1.6277
B(  9-C , 15-C ) :   1.1118 B( 10-C , 11-C ) :   1.1329 B( 10-C , 13-C ) :   1.1386
B( 11-C , 12-N ) :   2.9700 B( 13-C , 14-N ) :   2.9558 B( 15-C , 16-C ) :   1.4959
B( 16-C , 17-C ) :   1.3390 B( 16-C , 78-H ) :   0.9280 B( 17-C , 18-S ) :   1.0360
B( 17-C , 21-C ) :   1.3715 B( 18-S , 19-C ) :   1.0376 B( 19-C , 20-C ) :   1.4004
B( 19-C , 26-C ) :   1.3125 B( 20-C , 21-C ) :   1.4606 B( 20-C , 24-S ) :   1.0185
B( 21-C , 22-C ) :   1.0565 B( 22-C , 23-C ) :   1.0878 B( 22-C , 79-H ) :   0.9318
B( 22-C , 80-H ) :   0.9145 B( 23-C , 81-H ) :   0.9700 B( 23-C , 82-H ) :   0.9708
B( 23-C , 83-H ) :   0.9720 B( 24-S , 25-C ) :   1.0216 B( 25-C , 26-C ) :   1.4066
B( 25-C , 30-C ) :   1.4054 B( 26-C , 27-N ) :   1.1391 B( 27-N , 28-C ) :   0.9281
B( 27-N , 29-C ) :   1.1764 B( 28-C , 68-C ) :   1.0860 B( 28-C , 84-H ) :   0.9459
B( 28-C , 85-H ) :   0.9517 B( 29-C , 30-C ) :   1.3815 B( 29-C , 37-C ) :   1.1299
B( 30-C , 31-C ) :   1.1351 B( 31-C , 32-N ) :   1.6178 B( 31-C , 35-C ) :   1.1369
B( 32-N , 33-S ) :   1.2296 B( 32-N , 34-N ) :   0.1310 B( 33-S , 34-N ) :   1.2301
B( 34-N , 35-C ) :   1.6157 B( 35-C , 36-C ) :   1.1365 B( 36-C , 37-C ) :   1.3872
B( 36-C , 42-C ) :   1.3994 B( 37-C , 38-N ) :   1.1711 B( 38-N , 39-C ) :   0.9295
B( 38-N , 41-C ) :   1.1423 B( 39-C , 40-C ) :   1.0854 B( 39-C , 86-H ) :   0.9456
B( 39-C , 87-H ) :   0.9503 B( 40-C , 88-H ) :   0.9572 B( 40-C , 89-H ) :   0.9713
B( 40-C , 90-H ) :   0.9600 B( 41-C , 42-C ) :   1.4120 B( 41-C , 45-C ) :   1.3033
B( 42-C , 43-S ) :   1.0265 B( 43-S , 44-C ) :   1.0385 B( 44-C , 45-C ) :   1.4455
B( 44-C , 48-C ) :   1.3698 B( 45-C , 46-S ) :   1.0733 B( 46-S , 47-C ) :   1.0469
B( 47-C , 48-C ) :   1.4833 B( 47-C , 51-C ) :   1.2022 B( 48-C , 49-C ) :   1.0516
B( 49-C , 50-C ) :   1.0775 B( 49-C , 91-H ) :   0.9361 B( 49-C , 92-H ) :   0.9241
B( 50-C , 93-H ) :   0.9689 B( 50-C , 94-H ) :   0.9684 B( 50-C , 95-H ) :   0.9612
B( 51-C , 52-C ) :   1.5899 B( 51-C , 96-H ) :   0.9301 B( 52-C , 53-C ) :   1.0970
B( 52-C , 66-C ) :   0.9708 B( 53-C , 54-C ) :   1.6516 B( 53-C , 59-C ) :   1.0016
B( 54-C , 55-C ) :   1.1276 B( 54-C , 57-C ) :   1.1305 B( 55-C , 56-N ) :   2.9728
B( 57-C , 58-N ) :   2.9883 B( 59-C , 60-C ) :   1.3839 B( 59-C , 65-C ) :   1.3406
B( 60-C , 61-C ) :   1.3881 B( 60-C , 97-H ) :   0.9852 B( 61-C , 62-C ) :   1.3893
B( 61-C , 98-H ) :   0.9886 B( 62-C , 63-C ) :   0.9493 B( 62-C , 64-C ) :   1.3522
B( 63-C , 69-F ) :   1.1551 B( 63-C , 70-F ) :   1.1367 B( 63-C , 71-F ) :   1.1408
B( 64-C , 65-C ) :   1.3925 B( 64-C , 99-H ) :   1.0068 B( 65-C , 66-C ) :   0.9289
B( 66-C , 67-O ) :   2.1751 B( 68-C ,100-H ) :   0.9543 B( 68-C ,101-H ) :   0.9703
B( 68-C ,102-H ) :   0.9593

-----------------------------------------------------------------------------
         ABSORPTION SPECTRUM VIA TRANSITION ELECTRIC DIPOLE MOMENTS
-----------------------------------------------------------------------------
State   Energy  Wavelength   fosc         T2         TX        TY        TZ
        (cm-1)    (nm)                  (au**2)     (au)      (au)      (au)
-----------------------------------------------------------------------------
   0   19501.5    512.8   3.112397083  52.54142   2.39201  -6.57028   1.91079
   1   25130.3    397.9   0.857459976  11.23291   1.76721  -0.77031  -2.74162
   2   28551.0    350.3   0.086025681   0.99193   0.47472  -0.67983  -0.55173
   3   29275.4    341.6   0.157449992   1.77058  -0.59994  -0.65321   0.99195
   4   29304.7    341.2   0.087764359   0.98595   0.88654  -0.09943  -0.43602
   5   30128.9    331.9   0.166987407   1.82463  -0.83079   1.03439   0.25388
   6   31839.0    314.1   0.017970167   0.18581  -0.41955   0.00600   0.09875
   7   32488.5    307.8   0.049723351   0.50386   0.12531   0.66485   0.21478
   8   34128.4    293.0   0.010932500   0.10546   0.05459   0.13610   0.28975
   9   35027.5    285.5   0.359425660   3.37812  -0.75331   0.11758   1.67237
  10   35826.3    279.1   0.016670123   0.15318   0.13137   0.07258   0.36147
  11   36060.6    277.3   0.244635222   2.23337  -0.68084  -0.79893  -1.06374
  12   37726.2    265.1   0.155563200   1.35750  -0.75353   0.51129   0.72682
  13   38066.5    262.7   0.869854718   7.52279  -1.47354  -1.83982   1.40233
  14   38495.0    259.8   0.028756171   0.24592  -0.05415  -0.39718  -0.29196
  15   39449.3    253.5   0.083142093   0.69384  -0.55009  -0.29080   0.55378
  16   39891.7    250.7   0.224429826   1.85214  -1.29091  -0.41569   0.11356
  17   40181.2    248.9   0.259839110   2.12891   0.49917   0.78926  -1.12107

Dispersion correction           -0.066878873
FINAL SINGLE POINT ENERGY     -5249.114838795383

DIPOLE MOMENT
-------------
                                X             Y             Z
Electronic contribution:    -18.37242     -24.68808      11.98952
Nuclear contribution   :     17.85009      24.00538     -12.33756
                        -----------------------------------------
Total Dipole Moment    :     -0.52233      -0.68270      -0.34803
                        -----------------------------------------
Magnitude (a.u.)       :      0.92738
Magnitude (Debye)      :      2.35721

Rotational constants in cm-1:     0.001383     0.000224     0.000200
Rotational constants in MHz :    41.468487     6.723407     6.007156

                             ****ORCA TERMINATED NORMALLY****
TOTAL RUN TIME: 0 days 0 hours 12 minutes 16 seconds 978 msec
