                         Program Version 4.2.0 -  RELEASE  -
|  1> # ORCA input file
|  2> # SCF done       -196.344864887660          0.001339094755
|  3> ! wb97x-d3 def2-SVP def2/J RIJCOSX Grid4 TightSCF
|  4> %maxcore 5000
|  5> %tddft
|  6>     Mode sTDA
|  7>     Ethresh 5.0
|  8>     maxcore 5000
|  9> end
| 10>
| 11> %pal
| 12>   nprocs 6
| 13>   end
| 14> * xyz 0 1
| 15>    C       -0.39390        -1.42829         4.47789
| 16>    O       -1.29899        -1.86552         3.80278
| 17>    C       -0.41020        -1.21595         5.94389
| 18>    C       -1.46862        -1.37019         6.81718
| 19>    C       -1.23301        -1.13176         8.16173
| 20>    F       -2.23171        -1.26409         9.04270
| 21>    C        0.03531        -0.75702         8.60733
| 22>    F        0.23442        -0.54102         9.91199
| 23>    C        1.09984        -0.60655         7.73123
| 24>    C        0.87009        -0.83919         6.38430
| 25>    C        1.76124        -0.76429         5.22892
| 26>    C        3.05517        -0.31314         5.23354
| 27>    C        3.83722        -0.14147         4.07137
| 28>    N        4.51322         0.04715         3.16292
| 29>    C        3.75437         0.06944         6.39698
| 30>    N        4.36876         0.38338         7.31374
| 31>    C        0.99831        -1.14816         4.06231
| 32>    C        1.50553        -1.46542         2.83138
| 33>    C        0.77729        -1.62294         1.63188
| 34>    S        1.39525        -2.81945         0.49080
| 35>    C        0.20440        -2.37148        -0.66850
| 36>    C       -0.58346        -1.31142        -0.19559
| 37>    C       -0.27793        -0.88612         1.10402
| 38>    C       -0.90173         0.32642         1.71402
| 39>    C       -2.41051         0.16645         1.90416
| 40>    S       -1.73484        -0.73217        -1.37718
| 41>    C       -1.15310        -1.91469        -2.49300
| 42>    C       -0.13918        -2.73422        -1.97495
| 43>    N        0.27971        -3.61562        -2.93427
| 44>    C        1.47816        -4.40867        -2.77869
| 45>    C       -0.43927        -3.35791        -4.07950
| 46>    C       -1.33058        -2.27634        -3.83730
| 47>    C       -2.06449        -1.69565        -4.89276
| 48>    N       -2.91844        -0.68434        -4.85172
| 49>    S       -3.38128        -0.34057        -6.36158
| 50>    N       -2.51478        -1.45948        -7.13268
| 51>    C       -1.82981        -2.15809        -6.23633
| 52>    C       -0.97660        -3.25482        -6.44227
| 53>    C       -0.37170        -3.92360        -5.37365
| 54>    N        0.31673        -5.06999        -5.79785
| 55>    C        0.09243        -6.36668        -5.17412
| 56>    C       -1.33512        -6.87294        -5.37563
| 57>    C        0.27769        -5.05351        -7.20367
| 58>    C       -0.55840        -3.89030        -7.68644
| 59>    S        1.23748        -3.66981        -8.01103
| 60>    C       -0.16207        -6.33522        -9.26482
| 61>    C        0.17058        -6.13928        -8.10506
| 62>    S       -1.77602        -3.98185        -9.02509
| 63>    C       -1.19359        -4.79222       -10.56715
| 64>    C       -0.59276        -6.03088       -10.55492
| 65>    C       -0.33210        -6.95335       -11.70212
| 66>    C       -1.63399        -7.42225       -12.35595
| 67>    C       -1.54632        -3.96931       -11.66926
| 68>    C        1.28040        -5.55817        -1.79144
| 69>    C       -1.51783        -3.10955       -13.92291
| 70>    C       -1.06987        -3.09806       -15.21757
| 71>    C       -1.33414        -2.08457       -16.22086
| 72>    C       -2.18131        -1.01369       -16.11530
| 73>    C       -2.38909        -0.06473       -17.13995
| 74>    N       -2.60138         0.73951       -17.93049
| 75>    C       -2.98110        -0.70581       -14.99338
| 76>    N       -3.66860        -0.39002       -14.13032
| 77>    C       -0.53884        -2.41747       -17.40360
| 78>    C       -0.38166        -1.76109       -18.61506
| 79>    C        0.46099        -2.32813       -19.55907
| 80>    F        0.63099        -1.70697       -20.73109
| 81>    C        1.13528        -3.52551       -19.31577
| 82>    F        1.93828        -4.03618       -20.25614
| 83>    C        0.98392        -4.18700       -18.10811
| 84>    C        0.14877        -3.61911       -17.16600
| 85>    C       -0.16193        -4.10992       -15.80512
| 86>    O        0.25625        -5.13107       -15.30041
| 87>    C       -1.17788        -4.09696       -12.97446
| 88>    H       -2.44704        -1.66347         6.47146
| 89>    H        2.06308        -0.32316         8.12321
| 90>    H        2.56910        -1.66262         2.75250
| 91>    H       -0.42668         0.54883         2.66989
| 92>    H       -0.71897         1.16755         1.03725
| 93>    H       -2.61705        -0.68799         2.54196
| 94>    H       -2.81731         1.06049         2.36938
| 95>    H       -2.90315         0.01753         0.94710
| 96>    H        1.78169        -4.77040        -3.76162
| 97>    H        2.27133        -3.75332        -2.40111
| 98>    H        0.80950        -7.06289        -5.61716
| 99>    H        0.29703        -6.28573        -4.11037
|100>    H       -1.56003        -6.99134        -6.43374
|101>    H       -1.45493        -7.83566        -4.88601
|102>    H       -2.04804        -6.17054        -4.94765
|103>    H        0.30212        -6.46590       -12.44553
|104>    H        0.21423        -7.82050       -11.32480
|105>    H       -2.21133        -6.58043       -12.72839
|106>    H       -1.40695        -8.08243       -13.18888
|107>    H       -2.24341        -7.96625       -11.63729
|108>    H       -2.12335        -3.09237       -11.39551
|109>    H        1.14470        -5.17353        -0.78445
|110>    H        0.40620        -6.15493        -2.04302
|111>    H        2.15688        -6.19977        -1.79764
|112>    H       -2.14818        -2.29945       -13.57916
|113>    H       -0.87701        -0.83416       -18.85264
|114>    H        1.50511        -5.11075       -17.91386
|115>    H       -0.57342        -4.91682       -13.31976
|116> *
|117>
|118>                          ****END OF INPUT****

CARTESIAN COORDINATES (ANGSTROEM)
---------------------------------
  C     -0.393900   -1.428290    4.477890
  O     -1.298990   -1.865520    3.802780
  C     -0.410200   -1.215950    5.943890
  C     -1.468620   -1.370190    6.817180
  C     -1.233010   -1.131760    8.161730
  F     -2.231710   -1.264090    9.042700
  C      0.035310   -0.757020    8.607330
  F      0.234420   -0.541020    9.911990
  C      1.099840   -0.606550    7.731230
  C      0.870090   -0.839190    6.384300
  C      1.761240   -0.764290    5.228920
  C      3.055170   -0.313140    5.233540
  C      3.837220   -0.141470    4.071370
  N      4.513220    0.047150    3.162920
  C      3.754370    0.069440    6.396980
  N      4.368760    0.383380    7.313740
  C      0.998310   -1.148160    4.062310
  C      1.505530   -1.465420    2.831380
  C      0.777290   -1.622940    1.631880
  S      1.395250   -2.819450    0.490800
  C      0.204400   -2.371480   -0.668500
  C     -0.583460   -1.311420   -0.195590
  C     -0.277930   -0.886120    1.104020
  C     -0.901730    0.326420    1.714020
  C     -2.410510    0.166450    1.904160
  S     -1.734840   -0.732170   -1.377180
  C     -1.153100   -1.914690   -2.493000
  C     -0.139180   -2.734220   -1.974950
  N      0.279710   -3.615620   -2.934270
  C      1.478160   -4.408670   -2.778690
  C     -0.439270   -3.357910   -4.079500
  C     -1.330580   -2.276340   -3.837300
  C     -2.064490   -1.695650   -4.892760
  N     -2.918440   -0.684340   -4.851720
  S     -3.381280   -0.340570   -6.361580
  N     -2.514780   -1.459480   -7.132680
  C     -1.829810   -2.158090   -6.236330
  C     -0.976600   -3.254820   -6.442270
  C     -0.371700   -3.923600   -5.373650
  N      0.316730   -5.069990   -5.797850
  C      0.092430   -6.366680   -5.174120
  C     -1.335120   -6.872940   -5.375630
  C      0.277690   -5.053510   -7.203670
  C     -0.558400   -3.890300   -7.686440
  S      1.237480   -3.669810   -8.011030
  C     -0.162070   -6.335220   -9.264820
  C      0.170580   -6.139280   -8.105060
  S     -1.776020   -3.981850   -9.025090
  C     -1.193590   -4.792220  -10.567150
  C     -0.592760   -6.030880  -10.554920
  C     -0.332100   -6.953350  -11.702120
  C     -1.633990   -7.422250  -12.355950
  C     -1.546320   -3.969310  -11.669260
  C      1.280400   -5.558170   -1.791440
  C     -1.517830   -3.109550  -13.922910
  C     -1.069870   -3.098060  -15.217570
  C     -1.334140   -2.084570  -16.220860
  C     -2.181310   -1.013690  -16.115300
  C     -2.389090   -0.064730  -17.139950
  N     -2.601380    0.739510  -17.930490
  C     -2.981100   -0.705810  -14.993380
  N     -3.668600   -0.390020  -14.130320
  C     -0.538840   -2.417470  -17.403600
  C     -0.381660   -1.761090  -18.615060
  C      0.460990   -2.328130  -19.559070
  F      0.630990   -1.706970  -20.731090
  C      1.135280   -3.525510  -19.315770
  F      1.938280   -4.036180  -20.256140
  C      0.983920   -4.187000  -18.108110
  C      0.148770   -3.619110  -17.166000
  C     -0.161930   -4.109920  -15.805120
  O      0.256250   -5.131070  -15.300410
  C     -1.177880   -4.096960  -12.974460
  H     -2.447040   -1.663470    6.471460
  H      2.063080   -0.323160    8.123210
  H      2.569100   -1.662620    2.752500
  H     -0.426680    0.548830    2.669890
  H     -0.718970    1.167550    1.037250
  H     -2.617050   -0.687990    2.541960
  H     -2.817310    1.060490    2.369380
  H     -2.903150    0.017530    0.947100
  H      1.781690   -4.770400   -3.761620
  H      2.271330   -3.753320   -2.401110
  H      0.809500   -7.062890   -5.617160
  H      0.297030   -6.285730   -4.110370
  H     -1.560030   -6.991340   -6.433740
  H     -1.454930   -7.835660   -4.886010
  H     -2.048040   -6.170540   -4.947650
  H      0.302120   -6.465900  -12.445530
  H      0.214230   -7.820500  -11.324800
  H     -2.211330   -6.580430  -12.728390
  H     -1.406950   -8.082430  -13.188880
  H     -2.243410   -7.966250  -11.637290
  H     -2.123350   -3.092370  -11.395510
  H      1.144700   -5.173530   -0.784450
  H      0.406200   -6.154930   -2.043020
  H      2.156880   -6.199770   -1.797640
  H     -2.148180   -2.299450  -13.579160
  H     -0.877010   -0.834160  -18.852640
  H      1.505110   -5.110750  -17.913860
  H     -0.573420   -4.916820  -13.319760

 Total Charge           Charge          ....    0
 Multiplicity           Mult            ....    1
 Number of Electrons    NEL             ....  540
 Basis Dimension        Dim             .... 1182

ORBITAL ENERGIES
----------------

  NO   OCC          E(Eh)            E(eV)
   0   2.0000     -89.033457     -2422.7235
   1   2.0000     -89.000720     -2421.8327
   2   2.0000     -88.992816     -2421.6176
   3   2.0000     -88.965553     -2420.8758
   4   2.0000     -88.950347     -2420.4620
   5   2.0000     -24.837964      -675.8753
   6   2.0000     -24.837494      -675.8626
   7   2.0000     -24.836293      -675.8299
   8   2.0000     -24.836147      -675.8259
   9   2.0000     -19.264413      -524.2113
  10   2.0000     -19.261546      -524.1333
  11   2.0000     -14.526025      -395.2732
  12   2.0000     -14.497486      -394.4967
  13   2.0000     -14.469493      -393.7349
  14   2.0000     -14.467981      -393.6938
  15   2.0000     -14.456706      -393.3870
  16   2.0000     -14.454994      -393.3404
  17   2.0000     -14.454966      -393.3396
  18   2.0000     -14.454567      -393.3288
  19   2.0000     -10.424177      -283.6563
  20   2.0000     -10.423931      -283.6496
  21   2.0000     -10.423721      -283.6439
  22   2.0000     -10.423515      -283.6383
  23   2.0000     -10.413351      -283.3617
  24   2.0000     -10.412600      -283.3412
  25   2.0000     -10.411938      -283.3232
  26   2.0000     -10.391060      -282.7551
  27   2.0000     -10.386111      -282.6204
  28   2.0000     -10.384950      -282.5889
  29   2.0000     -10.384458      -282.5755
  30   2.0000     -10.383538      -282.5504
  31   2.0000     -10.377127      -282.3760
  32   2.0000     -10.372731      -282.2564
  33   2.0000     -10.367822      -282.1228
  34   2.0000     -10.366106      -282.0761
  35   2.0000     -10.365048      -282.0473
  36   2.0000     -10.364282      -282.0264
  37   2.0000     -10.364189      -282.0239
  38   2.0000     -10.362010      -281.9646
  39   2.0000     -10.357980      -281.8550
  40   2.0000     -10.357854      -281.8515
  41   2.0000     -10.357082      -281.8305
  42   2.0000     -10.356192      -281.8063
  43   2.0000     -10.355802      -281.7957
  44   2.0000     -10.355662      -281.7919
  45   2.0000     -10.355585      -281.7898
  46   2.0000     -10.355530      -281.7883
  47   2.0000     -10.355425      -281.7854
  48   2.0000     -10.354916      -281.7716
  49   2.0000     -10.354382      -281.7571
  50   2.0000     -10.348536      -281.5980
  51   2.0000     -10.348173      -281.5881
  52   2.0000     -10.347746      -281.5765
  53   2.0000     -10.346988      -281.5559
  54   2.0000     -10.346957      -281.5550
  55   2.0000     -10.346680      -281.5475
  56   2.0000     -10.346355      -281.5386
  57   2.0000     -10.345124      -281.5051
  58   2.0000     -10.341490      -281.4062
  59   2.0000     -10.341164      -281.3974
  60   2.0000     -10.338446      -281.3234
  61   2.0000     -10.337893      -281.3084
  62   2.0000     -10.332852      -281.1712
  63   2.0000     -10.331126      -281.1242
  64   2.0000     -10.330545      -281.1084
  65   2.0000     -10.330420      -281.1050
  66   2.0000     -10.325545      -280.9724
  67   2.0000     -10.324700      -280.9494
  68   2.0000     -10.316926      -280.7378
  69   2.0000     -10.315218      -280.6914
  70   2.0000     -10.303498      -280.3724
  71   2.0000     -10.302713      -280.3511
  72   2.0000     -10.288004      -279.9508
  73   2.0000      -8.144414      -221.6208
  74   2.0000      -8.113941      -220.7915
  75   2.0000      -8.105472      -220.5611
  76   2.0000      -8.078326      -219.8224
  77   2.0000      -8.064328      -219.4415
  78   2.0000      -6.106095      -166.1553
  79   2.0000      -6.098191      -165.9402
  80   2.0000      -6.096424      -165.8921
  81   2.0000      -6.073844      -165.2777
  82   2.0000      -6.069620      -165.1628
  83   2.0000      -6.065580      -165.0528
  84   2.0000      -6.065565      -165.0524
  85   2.0000      -6.061449      -164.9404
  86   2.0000      -6.056595      -164.8083
  87   2.0000      -6.039364      -164.3394
  88   2.0000      -6.034943      -164.2191
  89   2.0000      -6.027607      -164.0195
  90   2.0000      -6.025348      -163.9580
  91   2.0000      -6.021617      -163.8565
  92   2.0000      -6.012745      -163.6151
  93   2.0000      -1.367763       -37.2187
  94   2.0000      -1.367420       -37.2094
  95   2.0000      -1.352643       -36.8073
  96   2.0000      -1.352332       -36.7988
  97   2.0000      -1.181217       -32.1425
  98   2.0000      -1.179859       -32.1056
  99   2.0000      -1.158538       -31.5254
 100   2.0000      -1.151057       -31.3219
 101   2.0000      -1.140551       -31.0360
 102   2.0000      -1.065255       -28.9871
 103   2.0000      -1.065190       -28.9853
 104   2.0000      -1.056817       -28.7574
 105   2.0000      -1.046459       -28.4756
 106   2.0000      -1.045524       -28.4501
 107   2.0000      -1.036857       -28.2143
 108   2.0000      -1.036061       -28.1927
 109   2.0000      -1.026107       -27.9218
 110   2.0000      -1.012672       -27.5562
 111   2.0000      -1.006911       -27.3994
 112   2.0000      -1.003530       -27.3074
 113   2.0000      -1.001199       -27.2440
 114   2.0000      -0.995424       -27.0869
 115   2.0000      -0.989108       -26.9150
 116   2.0000      -0.962226       -26.1835
 117   2.0000      -0.950655       -25.8686
 118   2.0000      -0.945162       -25.7192
 119   2.0000      -0.942708       -25.6524
 120   2.0000      -0.938293       -25.5323
 121   2.0000      -0.924244       -25.1500
 122   2.0000      -0.922110       -25.0919
 123   2.0000      -0.919695       -25.0262
 124   2.0000      -0.917522       -24.9671
 125   2.0000      -0.917299       -24.9610
 126   2.0000      -0.899821       -24.4854
 127   2.0000      -0.892196       -24.2779
 128   2.0000      -0.885165       -24.0866
 129   2.0000      -0.876881       -23.8611
 130   2.0000      -0.865961       -23.5640
 131   2.0000      -0.859857       -23.3979
 132   2.0000      -0.843092       -22.9417
 133   2.0000      -0.841934       -22.9102
 134   2.0000      -0.836760       -22.7694
 135   2.0000      -0.825956       -22.4754
 136   2.0000      -0.816498       -22.2180
 137   2.0000      -0.815407       -22.1884
 138   2.0000      -0.795878       -21.6569
 139   2.0000      -0.792222       -21.5574
 140   2.0000      -0.788869       -21.4662
 141   2.0000      -0.780696       -21.2438
 142   2.0000      -0.774135       -21.0653
 143   2.0000      -0.762946       -20.7608
 144   2.0000      -0.756833       -20.5945
 145   2.0000      -0.752835       -20.4857
 146   2.0000      -0.749303       -20.3896
 147   2.0000      -0.747984       -20.3537
 148   2.0000      -0.742158       -20.1951
 149   2.0000      -0.739290       -20.1171
 150   2.0000      -0.730868       -19.8879
 151   2.0000      -0.722407       -19.6577
 152   2.0000      -0.715900       -19.4806
 153   2.0000      -0.706566       -19.2266
 154   2.0000      -0.702761       -19.1231
 155   2.0000      -0.700922       -19.0731
 156   2.0000      -0.689781       -18.7699
 157   2.0000      -0.684490       -18.6259
 158   2.0000      -0.682966       -18.5844
 159   2.0000      -0.682790       -18.5797
 160   2.0000      -0.678260       -18.4564
 161   2.0000      -0.675057       -18.3692
 162   2.0000      -0.668478       -18.1902
 163   2.0000      -0.658075       -17.9071
 164   2.0000      -0.651658       -17.7325
 165   2.0000      -0.650981       -17.7141
 166   2.0000      -0.642501       -17.4833
 167   2.0000      -0.637216       -17.3395
 168   2.0000      -0.636650       -17.3241
 169   2.0000      -0.631872       -17.1941
 170   2.0000      -0.628046       -17.0900
 171   2.0000      -0.627912       -17.0864
 172   2.0000      -0.627557       -17.0767
 173   2.0000      -0.622795       -16.9471
 174   2.0000      -0.617259       -16.7965
 175   2.0000      -0.609957       -16.5978
 176   2.0000      -0.605293       -16.4709
 177   2.0000      -0.601000       -16.3540
 178   2.0000      -0.591735       -16.1019
 179   2.0000      -0.590732       -16.0746
 180   2.0000      -0.590176       -16.0595
 181   2.0000      -0.588632       -16.0175
 182   2.0000      -0.586797       -15.9675
 183   2.0000      -0.586550       -15.9608
 184   2.0000      -0.586243       -15.9525
 185   2.0000      -0.585483       -15.9318
 186   2.0000      -0.580139       -15.7864
 187   2.0000      -0.578179       -15.7330
 188   2.0000      -0.576082       -15.6760
 189   2.0000      -0.575328       -15.6555
 190   2.0000      -0.572753       -15.5854
 191   2.0000      -0.571192       -15.5429
 192   2.0000      -0.568890       -15.4803
 193   2.0000      -0.568077       -15.4582
 194   2.0000      -0.567143       -15.4327
 195   2.0000      -0.559765       -15.2320
 196   2.0000      -0.557455       -15.1691
 197   2.0000      -0.553128       -15.0514
 198   2.0000      -0.549924       -14.9642
 199   2.0000      -0.545302       -14.8384
 200   2.0000      -0.541831       -14.7440
 201   2.0000      -0.540453       -14.7065
 202   2.0000      -0.538510       -14.6536
 203   2.0000      -0.535161       -14.5625
 204   2.0000      -0.534555       -14.5460
 205   2.0000      -0.532739       -14.4966
 206   2.0000      -0.532569       -14.4919
 207   2.0000      -0.528878       -14.3915
 208   2.0000      -0.524664       -14.2768
 209   2.0000      -0.522004       -14.2045
 210   2.0000      -0.519163       -14.1272
 211   2.0000      -0.518059       -14.0971
 212   2.0000      -0.511408       -13.9161
 213   2.0000      -0.508233       -13.8297
 214   2.0000      -0.503754       -13.7079
 215   2.0000      -0.500712       -13.6251
 216   2.0000      -0.499704       -13.5976
 217   2.0000      -0.497771       -13.5450
 218   2.0000      -0.497386       -13.5346
 219   2.0000      -0.495295       -13.4777
 220   2.0000      -0.493201       -13.4207
 221   2.0000      -0.492168       -13.3926
 222   2.0000      -0.491757       -13.3814
 223   2.0000      -0.489171       -13.3110
 224   2.0000      -0.488297       -13.2872
 225   2.0000      -0.487856       -13.2752
 226   2.0000      -0.487350       -13.2615
 227   2.0000      -0.485399       -13.2084
 228   2.0000      -0.483740       -13.1632
 229   2.0000      -0.482170       -13.1205
 230   2.0000      -0.482142       -13.1198
 231   2.0000      -0.478289       -13.0149
 232   2.0000      -0.473183       -12.8760
 233   2.0000      -0.471214       -12.8224
 234   2.0000      -0.467242       -12.7143
 235   2.0000      -0.466226       -12.6867
 236   2.0000      -0.466162       -12.6849
 237   2.0000      -0.465016       -12.6537
 238   2.0000      -0.462239       -12.5782
 239   2.0000      -0.461316       -12.5531
 240   2.0000      -0.456602       -12.4248
 241   2.0000      -0.451908       -12.2971
 242   2.0000      -0.451329       -12.2813
 243   2.0000      -0.448197       -12.1961
 244   2.0000      -0.447498       -12.1771
 245   2.0000      -0.444149       -12.0859
 246   2.0000      -0.437881       -11.9153
 247   2.0000      -0.437266       -11.8986
 248   2.0000      -0.434374       -11.8199
 249   2.0000      -0.429943       -11.6994
 250   2.0000      -0.421833       -11.4787
 251   2.0000      -0.405389       -11.0312
 252   2.0000      -0.398972       -10.8566
 253   2.0000      -0.394636       -10.7386
 254   2.0000      -0.392807       -10.6888
 255   2.0000      -0.388042       -10.5591
 256   2.0000      -0.384166       -10.4537
 257   2.0000      -0.382266       -10.4020
 258   2.0000      -0.379431       -10.3248
 259   2.0000      -0.378536       -10.3005
 260   2.0000      -0.364330        -9.9139
 261   2.0000      -0.356330        -9.6962
 262   2.0000      -0.352866        -9.6020
 263   2.0000      -0.348622        -9.4865
 264   2.0000      -0.338566        -9.2129
 265   2.0000      -0.334540        -9.1033
 266   2.0000      -0.325071        -8.8456
 267   2.0000      -0.309428        -8.4200
 268   2.0000      -0.300013        -8.1638
 269   2.0000      -0.284315        -7.7366
 270   0.0000      -0.083681        -2.2771
 271   0.0000      -0.074563        -2.0290
 272   0.0000      -0.047681        -1.2975
 273   0.0000      -0.046084        -1.2540
 274   0.0000      -0.025111        -0.6833

MULLIKEN ATOMIC CHARGES
-----------------------
   0 C :    0.203127
   1 O :   -0.167571
   2 C :   -0.062594
   3 C :   -0.088991
   4 C :    0.242408
   5 F :   -0.182540
   6 C :    0.243739
   7 F :   -0.179275
   8 C :   -0.085572
   9 C :    0.032925
  10 C :    0.260595
  11 C :   -0.357242
  12 C :   -0.149929
  13 N :    0.119439
  14 C :   -0.126816
  15 N :    0.110402
  16 C :   -0.152614
  17 C :    0.028001
  18 C :   -0.166645
  19 S :    0.157086
  20 C :   -0.044363
  21 C :   -0.119972
  22 C :   -0.010593
  23 C :    0.021881
  24 C :   -0.053097
  25 S :    0.207194
  26 C :   -0.075166
  27 C :    0.067426
  28 N :   -0.248437
  29 C :    0.041699
  30 C :    0.098411
  31 C :   -0.090782
  32 C :    0.022977
  33 N :   -0.295935
  34 S :    0.493496
  35 N :   -0.295116
  36 C :    0.001118
  37 C :    0.093638
  38 C :    0.058601
  39 N :   -0.248534
  40 C :    0.071169
  41 C :   -0.041538
  42 C :   -0.103551
  43 C :   -0.284748
  44 S :    0.067837
  45 C :    0.034421
  46 C :    0.016281
  47 S :    0.105481
  48 C :   -0.169555
  49 C :   -0.043906
  50 C :    0.027723
  51 C :   -0.043755
  52 C :    0.095861
  53 C :   -0.054635
  54 C :   -0.013500
  55 C :   -0.121812
  56 C :    0.288821
  57 C :   -0.366433
  58 C :   -0.129803
  59 N :    0.113025
  60 C :   -0.133127
  61 N :    0.108541
  62 C :    0.028222
  63 C :   -0.086425
  64 C :    0.247208
  65 F :   -0.177830
  66 C :    0.242080
  67 F :   -0.182256
  68 C :   -0.091431
  69 C :   -0.055095
  70 C :    0.214136
  71 O :   -0.180110
  72 C :   -0.035181
  73 H :    0.041292
  74 H :    0.046541
  75 H :    0.065251
  76 H :    0.029202
  77 H :    0.055317
  78 H :    0.064837
  79 H :    0.037929
  80 H :    0.034368
  81 H :    0.073202
  82 H :    0.059510
  83 H :    0.057716
  84 H :    0.014267
  85 H :    0.049591
  86 H :    0.045120
  87 H :    0.049373
  88 H :    0.078364
  89 H :    0.039690
  90 H :    0.045287
  91 H :    0.052004
  92 H :    0.043595
  93 H :    0.049056
  94 H :    0.043007
  95 H :    0.057034
  96 H :    0.056215
  97 H :    0.037899
  98 H :    0.045829
  99 H :    0.041547
 100 H :    0.038465
Sum of atomic charges:    0.0000000

LOEWDIN ATOMIC CHARGES
----------------------
   0 C :    0.090090
   1 O :   -0.134147
   2 C :   -0.050445
   3 C :   -0.006388
   4 C :    0.075270
   5 F :   -0.048397
   6 C :    0.078356
   7 F :   -0.046206
   8 C :   -0.017573
   9 C :   -0.019509
  10 C :    0.075221
  11 C :   -0.142331
  12 C :   -0.020588
  13 N :   -0.048893
  14 C :   -0.015283
  15 N :   -0.049447
  16 C :   -0.116771
  17 C :    0.061884
  18 C :   -0.185992
  19 S :    0.424742
  20 C :   -0.191321
  21 C :   -0.190524
  22 C :   -0.002814
  23 C :   -0.031960
  24 C :   -0.056176
  25 S :    0.435630
  26 C :   -0.174316
  27 C :   -0.036275
  28 N :    0.041268
  29 C :    0.037435
  30 C :    0.013782
  31 C :   -0.073167
  32 C :   -0.052031
  33 N :   -0.288264
  34 S :    0.613223
  35 N :   -0.284687
  36 C :   -0.056622
  37 C :   -0.090706
  38 C :    0.030270
  39 N :   -0.048415
  40 C :    0.034520
  41 C :   -0.068840
  42 C :   -0.071651
  43 C :   -0.216907
  44 S :    0.162577
  45 C :    0.001592
  46 C :   -0.071243
  47 S :    0.327803
  48 C :   -0.145355
  49 C :   -0.008330
  50 C :   -0.029693
  51 C :   -0.048345
  52 C :    0.018825
  53 C :   -0.067214
  54 C :    0.082685
  55 C :   -0.107938
  56 C :    0.076771
  57 C :   -0.138956
  58 C :   -0.014423
  59 N :   -0.048274
  60 C :   -0.016064
  61 N :   -0.046359
  62 C :   -0.018201
  63 C :   -0.017446
  64 C :    0.079147
  65 F :   -0.045619
  66 C :    0.075405
  67 F :   -0.047900
  68 C :   -0.005691
  69 C :   -0.051180
  70 C :    0.095859
  71 O :   -0.149480
  72 C :   -0.038484
  73 H :    0.055535
  74 H :    0.054403
  75 H :    0.047826
  76 H :    0.030877
  77 H :    0.041097
  78 H :    0.029941
  79 H :    0.029080
  80 H :    0.014591
  81 H :    0.035749
  82 H :    0.033861
  83 H :    0.034898
  84 H :    0.022822
  85 H :    0.030782
  86 H :    0.034398
  87 H :    0.031821
  88 H :    0.046451
  89 H :    0.040111
  90 H :    0.027794
  91 H :    0.034919
  92 H :    0.030788
  93 H :    0.040581
  94 H :    0.019118
  95 H :    0.028357
  96 H :    0.038722
  97 H :    0.045546
  98 H :    0.054295
  99 H :    0.055586
 100 H :    0.030537

  Mayer bond orders larger than 0.100000
B(  0-C ,  1-O ) :   2.1715 B(  0-C ,  2-C ) :   0.9439 B(  0-C , 16-C ) :   0.9679
B(  2-C ,  3-C ) :   1.3458 B(  2-C ,  9-C ) :   1.3410 B(  3-C ,  4-C ) :   1.3323
B(  3-C , 73-H ) :   1.0147 B(  4-C ,  5-F ) :   1.1015 B(  4-C ,  6-C ) :   1.2909
B(  6-C ,  7-F ) :   1.1135 B(  6-C ,  8-C ) :   1.3518 B(  8-C ,  9-C ) :   1.3310
B(  8-C , 74-H ) :   0.9894 B(  9-C , 10-C ) :   1.0261 B( 10-C , 11-C ) :   1.6612
B( 10-C , 16-C ) :   1.0817 B( 11-C , 12-C ) :   1.1310 B( 11-C , 14-C ) :   1.1229
B( 12-C , 13-N ) :   2.9946 B( 14-C , 15-N ) :   2.9779 B( 16-C , 17-C ) :   1.6148
B( 17-C , 18-C ) :   1.1824 B( 17-C , 75-H ) :   0.9339 B( 18-C , 19-S ) :   1.0505
B( 18-C , 22-C ) :   1.5001 B( 19-S , 20-C ) :   1.0723 B( 20-C , 21-C ) :   1.4561
B( 20-C , 27-C ) :   1.3035 B( 21-C , 22-C ) :   1.3576 B( 21-C , 25-S ) :   1.0422
B( 22-C , 23-C ) :   1.0548 B( 23-C , 24-C ) :   1.0757 B( 23-C , 76-H ) :   0.9234
B( 23-C , 77-H ) :   0.9352 B( 24-C , 78-H ) :   0.9621 B( 24-C , 79-H ) :   0.9689
B( 24-C , 80-H ) :   0.9695 B( 25-S , 26-C ) :   1.0292 B( 26-C , 27-C ) :   1.4165
B( 26-C , 31-C ) :   1.3716 B( 27-C , 28-N ) :   1.1459 B( 28-N , 29-C ) :   0.9214
B( 28-N , 30-C ) :   1.1765 B( 29-C , 53-C ) :   1.0795 B( 29-C , 81-H ) :   0.9524
B( 29-C , 82-H ) :   0.9541 B( 30-C , 31-C ) :   1.3723 B( 30-C , 38-C ) :   1.1826
B( 31-C , 32-C ) :   1.1531 B( 32-C , 33-N ) :   1.6066 B( 32-C , 36-C ) :   1.1367
B( 33-N , 34-S ) :   1.2392 B( 33-N , 35-N ) :   0.1355 B( 34-S , 35-N ) :   1.2451
B( 35-N , 36-C ) :   1.5745 B( 36-C , 37-C ) :   1.2008 B( 37-C , 38-C ) :   1.5260
B( 37-C , 43-C ) :   0.9715 B( 38-C , 39-N ) :   1.0662 B( 39-N , 40-C ) :   0.9520
B( 39-N , 42-C ) :   1.0197 B( 40-C , 41-C ) :   1.1004 B( 40-C , 83-H ) :   0.9458
B( 40-C , 84-H ) :   0.9512 B( 41-C , 85-H ) :   0.9594 B( 41-C , 86-H ) :   0.9659
B( 41-C , 87-H ) :   0.9630 B( 42-C , 43-C ) :   0.8585 B( 42-C , 44-S ) :   0.9470
B( 42-C , 46-C ) :   1.0634 B( 43-C , 44-S ) :   0.9615 B( 43-C , 47-S ) :   0.9898
B( 45-C , 46-C ) :   2.5511 B( 45-C , 49-C ) :   1.1190 B( 47-S , 48-C ) :   1.0297
B( 48-C , 49-C ) :   1.6408 B( 48-C , 52-C ) :   1.1199 B( 49-C , 50-C ) :   1.0177
B( 50-C , 51-C ) :   1.0816 B( 50-C , 88-H ) :   0.9202 B( 50-C , 89-H ) :   0.9321
B( 51-C , 90-H ) :   0.9746 B( 51-C , 91-H ) :   0.9712 B( 51-C , 92-H ) :   0.9690
B( 52-C , 72-C ) :   1.5991 B( 52-C , 93-H ) :   0.9554 B( 53-C , 94-H ) :   0.9589
B( 53-C , 95-H ) :   0.9628 B( 53-C , 96-H ) :   0.9706 B( 54-C , 55-C ) :   1.5717
B( 54-C , 72-C ) :   1.1844 B( 54-C , 97-H ) :   0.9622 B( 55-C , 56-C ) :   1.0710
B( 55-C , 70-C ) :   0.9566 B( 56-C , 57-C ) :   1.6575 B( 56-C , 62-C ) :   1.0194
B( 57-C , 58-C ) :   1.1243 B( 57-C , 60-C ) :   1.1326 B( 58-C , 59-N ) :   2.9749
B( 60-C , 61-N ) :   2.9634 B( 62-C , 63-C ) :   1.3292 B( 62-C , 69-C ) :   1.3456
B( 63-C , 64-C ) :   1.3535 B( 63-C , 98-H ) :   0.9887 B( 64-C , 65-F ) :   1.1164
B( 64-C , 66-C ) :   1.2896 B( 66-C , 67-F ) :   1.1020 B( 66-C , 68-C ) :   1.3325
B( 68-C , 69-C ) :   1.3397 B( 68-C , 99-H ) :   1.0152 B( 69-C , 70-C ) :   0.9615
B( 70-C , 71-O ) :   2.1708 B( 72-C ,100-H ) :   0.9640

-----------------------------------------------------------------------------
         ABSORPTION SPECTRUM VIA TRANSITION ELECTRIC DIPOLE MOMENTS
-----------------------------------------------------------------------------
State   Energy  Wavelength   fosc         T2         TX        TY        TZ
        (cm-1)    (nm)                  (au**2)     (au)      (au)      (au)
-----------------------------------------------------------------------------
   0   21156.1    472.7   1.682705800  26.18475  -1.23681   1.13757  -4.83332
   1   22609.2    442.3   1.223813883  17.81993   1.25913   1.11436   3.87205
   2   27180.2    367.9   0.638407676   7.73251   0.05692  -1.30487   2.45491
   3   28227.6    354.3   0.014269653   0.16642   0.22866   0.31884  -0.11172
   4   29225.0    342.2   0.020904359   0.23548   0.24048   0.42137   0.00999
   5   30099.3    332.2   0.148789071   1.62739   0.53456  -1.15653  -0.06375
   6   30604.5    326.7   0.142828135   1.53640   0.37996  -0.51021  -1.06382
   7   30673.4    326.0   0.016134291   0.17317   0.03876   0.07111  -0.40818
   8   31302.2    319.5   0.009086112   0.09556   0.02912  -0.01629   0.30732
   9   31730.1    315.2   0.011189037   0.11609   0.14457  -0.19907  -0.23571
  10   33366.9    299.7   0.100434538   0.99093  -0.45332  -0.54639  -0.69777
  11   34328.9    291.3   0.205939298   1.97494  -0.88938   1.07153   0.18913
  12   34744.8    287.8   0.276041445   2.61553   1.11643  -0.51785  -1.04926
  13   35024.5    285.5   0.093168122   0.87573  -0.85315  -0.38145  -0.04862
  14   35437.6    282.2   0.088674591   0.82378   0.75867  -0.49582  -0.04863
  15   35505.4    281.6   0.327812179   3.03953  -1.00473  -0.00238   1.42479
  16   36160.1    276.5   0.005197878   0.04732  -0.20635  -0.05498   0.04145
  17   36356.5    275.1   0.171902778   1.55660  -0.59478   0.55886  -0.94366
  18   36885.2    271.1   0.087475764   0.78075  -0.77895   0.09313  -0.40659
  19   37355.5    267.7   0.116165903   1.02376  -0.17754   0.95017  -0.29904
  20   37456.0    267.0   0.081024957   0.71215  -0.40928  -0.27415   0.68519
  21   37985.0    263.3   0.663330892   5.74901  -1.29588   0.60987   1.92296
  22   38132.8    262.2   0.137682917   1.18866   0.67254  -0.39163  -0.76353
  23   38607.4    259.0   0.326059038   2.78036   0.69687   1.07151  -1.07079
  24   39549.0    252.9   0.080932786   0.67370  -0.34988  -0.62192   0.40558
  25   40200.6    248.8   0.009227052   0.07556  -0.21263  -0.01932   0.17314

Dispersion correction           -0.065697886
FINAL SINGLE POINT ENERGY     -5049.380263731276

DIPOLE MOMENT
-------------
                                X             Y             Z
Electronic contribution:      5.24387      40.55711      -2.72913
Nuclear contribution   :     -5.35190     -44.22420       2.90545
                        -----------------------------------------
Total Dipole Moment    :     -0.10802      -3.66710       0.17632
                        -----------------------------------------
Magnitude (a.u.)       :      3.67292
Magnitude (Debye)      :      9.33583

Rotational constants in cm-1:     0.002536     0.000206     0.000202
Rotational constants in MHz :    76.015258     6.162480     6.063019

                             ****ORCA TERMINATED NORMALLY****
TOTAL RUN TIME: 0 days 0 hours 11 minutes 31 seconds 980 msec
