                         Program Version 4.2.0 -  RELEASE  -
|  1> # ORCA input file
|  2> # SCF done       -151.764520600396          0.000661456512
|  3> ! wb97x-d3 def2-SVP def2/J RIJCOSX Grid4 TightSCF
|  4> %maxcore 5000
|  5> %tddft
|  6>     Mode sTDA
|  7>     Ethresh 5.0
|  8>     maxcore 5000
|  9> end
| 10>
| 11> %pal
| 12>   nprocs 6
| 13>   end
| 14> * xyz 0 1
| 15>    C       -6.32562         0.03487        -0.77617
| 16>    O       -5.11814         0.09242        -0.87548
| 17>    C       -7.25925         1.14327        -1.07669
| 18>    C       -6.95379         2.40341        -1.54733
| 19>    C       -8.01250         3.27404        -1.76511
| 20>    C       -9.32646         2.89595        -1.52142
| 21>    C       -9.62109         1.62747        -1.04547
| 22>    C       -8.57878         0.73930        -0.81796
| 23>    C       -8.55746        -0.63678        -0.32807
| 24>    C       -9.65437        -1.31800         0.13098
| 25>    C      -10.96275        -0.78780         0.14677
| 26>    N      -12.05012        -0.42242         0.18763
| 27>    C       -9.66483        -2.61718         0.68342
| 28>    N       -9.77370        -3.65792         1.15720
| 29>    C       -7.17859        -1.10045        -0.36549
| 30>    C       -6.81533        -2.40268        -0.13994
| 31>    C       -5.55917        -3.03471        -0.11651
| 32>    C       -4.25269        -2.57480        -0.19783
| 33>    C       -3.30711        -3.58602        -0.11856
| 34>    C       -3.84404        -4.85656         0.02466
| 35>    S       -5.56836        -4.77747         0.07534
| 36>    C       -3.15121        -6.12002         0.09931
| 37>    C       -3.88956        -7.32006         0.13089
| 38>    C       -3.27531        -8.54843         0.15382
| 39>    C       -1.88450        -8.60285         0.14816
| 40>    C       -1.13285        -7.39824         0.14218
| 41>    C       -1.75519        -6.16334         0.11561
| 42>    N        0.20721        -7.69731         0.14949
| 43>    C        1.28349        -6.74185         0.10521
| 44>    C        1.64885        -6.36721        -1.32992
| 45>    C        0.34721        -9.06184         0.10919
| 46>    C       -0.93614        -9.66924         0.12577
| 47>    C       -1.04306       -11.05654         0.09700
| 48>    C        0.10213       -11.81399         0.03134
| 49>    C        1.37869       -11.21681        -0.00647
| 50>    C        1.49632        -9.82633         0.04305
| 51>    C        2.56723       -12.02623        -0.11990
| 52>    C        2.67009       -13.40085        -0.26475
| 53>    C        3.97223       -13.86469        -0.38373
| 54>    C        4.92431       -12.85698        -0.33287
| 55>    S        4.13830       -11.30482        -0.11911
| 56>    C        6.32887       -12.83799        -0.39844
| 57>    C        7.24557       -13.82475        -0.65149
| 58>    C        8.68259       -13.59751        -0.66014
| 59>    C        9.35372       -12.48758        -0.21702
| 60>    C       10.75847       -12.35059        -0.24746
| 61>    N       11.89199       -12.16961        -0.24538
| 62>    C        8.77803       -11.33435         0.35859
| 63>    N        8.40560       -10.36651         0.85274
| 64>    C        9.32137       -14.80493        -1.17766
| 65>    C       10.64770       -15.10688        -1.45432
| 66>    C       10.95784       -16.36530        -1.94680
| 67>    C        9.96114       -17.30928        -2.15784
| 68>    C        8.62787       -17.03018        -1.89113
| 69>    C        8.33087       -15.77401        -1.40487
| 70>    C        7.00100       -15.22528        -1.05619
| 71>    O        5.95447       -15.83493        -1.11775
| 72>   Br       -7.65846         5.02452        -2.41279
| 73>   Br       10.43581       -19.02003        -2.83377
| 74>    H       -5.93048         2.68931        -1.73517
| 75>    H      -10.12566         3.59730        -1.70591
| 76>    H      -10.64843         1.35611        -0.86835
| 77>    H       -7.63249        -3.09277         0.03528
| 78>    H       -4.01300        -1.53463        -0.31682
| 79>    H       -2.25105        -3.39389        -0.17286
| 80>    H       -4.96778        -7.26112         0.12558
| 81>    H       -3.85809        -9.45617         0.16819
| 82>    H       -1.17836        -5.25333         0.10107
| 83>    H        0.97763        -5.85183         0.66148
| 84>    H        2.14953        -7.17468         0.61217
| 85>    H        0.79135        -5.93227        -1.83822
| 86>    H        2.46072        -5.64535        -1.33179
| 87>    H        1.96460        -7.24954        -1.88144
| 88>    H       -2.01310       -11.52857         0.11867
| 89>    H        0.02136       -12.88815         0.00482
| 90>    H        2.47515        -9.37163         0.01382
| 91>    H        1.81828       -14.05554        -0.29009
| 92>    H        4.23364       -14.89899        -0.50897
| 93>    H        6.74010       -11.84821        -0.23719
| 94>    H       11.43773       -14.39049        -1.30201
| 95>    H       11.98388       -16.61484        -2.16952
| 96>    H        7.84775       -17.75746        -2.05466
| 97> *
| 98>
| 99>                          ****END OF INPUT****

CARTESIAN COORDINATES (ANGSTROEM)
---------------------------------
  C     -6.325620    0.034870   -0.776170
  O     -5.118140    0.092420   -0.875480
  C     -7.259250    1.143270   -1.076690
  C     -6.953790    2.403410   -1.547330
  C     -8.012500    3.274040   -1.765110
  C     -9.326460    2.895950   -1.521420
  C     -9.621090    1.627470   -1.045470
  C     -8.578780    0.739300   -0.817960
  C     -8.557460   -0.636780   -0.328070
  C     -9.654370   -1.318000    0.130980
  C    -10.962750   -0.787800    0.146770
  N    -12.050120   -0.422420    0.187630
  C     -9.664830   -2.617180    0.683420
  N     -9.773700   -3.657920    1.157200
  C     -7.178590   -1.100450   -0.365490
  C     -6.815330   -2.402680   -0.139940
  C     -5.559170   -3.034710   -0.116510
  C     -4.252690   -2.574800   -0.197830
  C     -3.307110   -3.586020   -0.118560
  C     -3.844040   -4.856560    0.024660
  S     -5.568360   -4.777470    0.075340
  C     -3.151210   -6.120020    0.099310
  C     -3.889560   -7.320060    0.130890
  C     -3.275310   -8.548430    0.153820
  C     -1.884500   -8.602850    0.148160
  C     -1.132850   -7.398240    0.142180
  C     -1.755190   -6.163340    0.115610
  N      0.207210   -7.697310    0.149490
  C      1.283490   -6.741850    0.105210
  C      1.648850   -6.367210   -1.329920
  C      0.347210   -9.061840    0.109190
  C     -0.936140   -9.669240    0.125770
  C     -1.043060  -11.056540    0.097000
  C      0.102130  -11.813990    0.031340
  C      1.378690  -11.216810   -0.006470
  C      1.496320   -9.826330    0.043050
  C      2.567230  -12.026230   -0.119900
  C      2.670090  -13.400850   -0.264750
  C      3.972230  -13.864690   -0.383730
  C      4.924310  -12.856980   -0.332870
  S      4.138300  -11.304820   -0.119110
  C      6.328870  -12.837990   -0.398440
  C      7.245570  -13.824750   -0.651490
  C      8.682590  -13.597510   -0.660140
  C      9.353720  -12.487580   -0.217020
  C     10.758470  -12.350590   -0.247460
  N     11.891990  -12.169610   -0.245380
  C      8.778030  -11.334350    0.358590
  N      8.405600  -10.366510    0.852740
  C      9.321370  -14.804930   -1.177660
  C     10.647700  -15.106880   -1.454320
  C     10.957840  -16.365300   -1.946800
  C      9.961140  -17.309280   -2.157840
  C      8.627870  -17.030180   -1.891130
  C      8.330870  -15.774010   -1.404870
  C      7.001000  -15.225280   -1.056190
  O      5.954470  -15.834930   -1.117750
  Br    -7.658460    5.024520   -2.412790
  Br    10.435810  -19.020030   -2.833770
  H     -5.930480    2.689310   -1.735170
  H    -10.125660    3.597300   -1.705910
  H    -10.648430    1.356110   -0.868350
  H     -7.632490   -3.092770    0.035280
  H     -4.013000   -1.534630   -0.316820
  H     -2.251050   -3.393890   -0.172860
  H     -4.967780   -7.261120    0.125580
  H     -3.858090   -9.456170    0.168190
  H     -1.178360   -5.253330    0.101070
  H      0.977630   -5.851830    0.661480
  H      2.149530   -7.174680    0.612170
  H      0.791350   -5.932270   -1.838220
  H      2.460720   -5.645350   -1.331790
  H      1.964600   -7.249540   -1.881440
  H     -2.013100  -11.528570    0.118670
  H      0.021360  -12.888150    0.004820
  H      2.475150   -9.371630    0.013820
  H      1.818280  -14.055540   -0.290090
  H      4.233640  -14.898990   -0.508970
  H      6.740100  -11.848210   -0.237190
  H     11.437730  -14.390490   -1.302010
  H     11.983880  -16.614840   -2.169520
  H      7.847750  -17.757460   -2.054660

 Total Charge           Charge          ....    0
 Multiplicity           Mult            ....    1
 Number of Electrons    NEL             ....  464
 Basis Dimension        Dim             ....  985

ORBITAL ENERGIES
----------------

  NO   OCC          E(Eh)            E(eV)
   0   2.0000    -482.879017    -13139.8061
   1   2.0000    -482.878321    -13139.7871
   2   2.0000     -88.996261     -2421.7114
   3   2.0000     -88.995500     -2421.6907
   4   2.0000     -62.597023     -1703.3516
   5   2.0000     -62.596333     -1703.3328
   6   2.0000     -56.415744     -1535.1504
   7   2.0000     -56.415053     -1535.1316
   8   2.0000     -56.413165     -1535.0803
   9   2.0000     -56.413159     -1535.0801
  10   2.0000     -56.412476     -1535.0615
  11   2.0000     -56.412469     -1535.0613
  12   2.0000     -19.260496      -524.1047
  13   2.0000     -19.259629      -524.0811
  14   2.0000     -14.502105      -394.6223
  15   2.0000     -14.454293      -393.3213
  16   2.0000     -14.452709      -393.2782
  17   2.0000     -14.450599      -393.2208
  18   2.0000     -14.449483      -393.1904
  19   2.0000     -10.409269      -283.2506
  20   2.0000     -10.408496      -283.2296
  21   2.0000     -10.381863      -282.5048
  22   2.0000     -10.381788      -282.5028
  23   2.0000     -10.380935      -282.4796
  24   2.0000     -10.380566      -282.4695
  25   2.0000     -10.379090      -282.4294
  26   2.0000     -10.377993      -282.3995
  27   2.0000     -10.363802      -282.0134
  28   2.0000     -10.363711      -282.0109
  29   2.0000     -10.363130      -281.9951
  30   2.0000     -10.362579      -281.9801
  31   2.0000     -10.360668      -281.9281
  32   2.0000     -10.355897      -281.7983
  33   2.0000     -10.355840      -281.7967
  34   2.0000     -10.355419      -281.7853
  35   2.0000     -10.353693      -281.7383
  36   2.0000     -10.352085      -281.6946
  37   2.0000     -10.351790      -281.6865
  38   2.0000     -10.350915      -281.6627
  39   2.0000     -10.350625      -281.6548
  40   2.0000     -10.346098      -281.5316
  41   2.0000     -10.345108      -281.5047
  42   2.0000     -10.339221      -281.3445
  43   2.0000     -10.338500      -281.3249
  44   2.0000     -10.338229      -281.3175
  45   2.0000     -10.337557      -281.2992
  46   2.0000     -10.337257      -281.2911
  47   2.0000     -10.336661      -281.2749
  48   2.0000     -10.336562      -281.2722
  49   2.0000     -10.336255      -281.2638
  50   2.0000     -10.335846      -281.2527
  51   2.0000     -10.334841      -281.2253
  52   2.0000     -10.334214      -281.2083
  53   2.0000     -10.333192      -281.1804
  54   2.0000     -10.324797      -280.9520
  55   2.0000     -10.323880      -280.9271
  56   2.0000     -10.323732      -280.9230
  57   2.0000     -10.323364      -280.9130
  58   2.0000     -10.320854      -280.8447
  59   2.0000     -10.320601      -280.8378
  60   2.0000     -10.320430      -280.8332
  61   2.0000     -10.320130      -280.8250
  62   2.0000     -10.317990      -280.7668
  63   2.0000     -10.317730      -280.7597
  64   2.0000     -10.315244      -280.6921
  65   2.0000     -10.314361      -280.6680
  66   2.0000     -10.308669      -280.5132
  67   2.0000      -8.823982      -240.1127
  68   2.0000      -8.823289      -240.0939
  69   2.0000      -8.110356      -220.6940
  70   2.0000      -8.109502      -220.6708
  71   2.0000      -6.654941      -181.0902
  72   2.0000      -6.654253      -181.0714
  73   2.0000      -6.641014      -180.7112
  74   2.0000      -6.640625      -180.7006
  75   2.0000      -6.640324      -180.6924
  76   2.0000      -6.639930      -180.6817
  77   2.0000      -6.069590      -165.1619
  78   2.0000      -6.068752      -165.1391
  79   2.0000      -6.065649      -165.0547
  80   2.0000      -6.064733      -165.0298
  81   2.0000      -6.062939      -164.9810
  82   2.0000      -6.062144      -164.9593
  83   2.0000      -2.766771       -75.2877
  84   2.0000      -2.766072       -75.2687
  85   2.0000      -2.762975       -75.1844
  86   2.0000      -2.762686       -75.1765
  87   2.0000      -2.762295       -75.1659
  88   2.0000      -2.761996       -75.1577
  89   2.0000      -2.751556       -74.8737
  90   2.0000      -2.751548       -74.8734
  91   2.0000      -2.750868       -74.8549
  92   2.0000      -2.750863       -74.8548
  93   2.0000      -1.177640       -32.0452
  94   2.0000      -1.176779       -32.0218
  95   2.0000      -1.138010       -30.9668
  96   2.0000      -1.061202       -28.8768
  97   2.0000      -1.059970       -28.8433
  98   2.0000      -1.042957       -28.3803
  99   2.0000      -1.041955       -28.3530
 100   2.0000      -1.041427       -28.3387
 101   2.0000      -1.040504       -28.3136
 102   2.0000      -1.033245       -28.1160
 103   2.0000      -1.031915       -28.0798
 104   2.0000      -1.005381       -27.3578
 105   2.0000      -1.004504       -27.3339
 106   2.0000      -1.000059       -27.2130
 107   2.0000      -0.997510       -27.1436
 108   2.0000      -0.958482       -26.0816
 109   2.0000      -0.950263       -25.8580
 110   2.0000      -0.948911       -25.8212
 111   2.0000      -0.945936       -25.7402
 112   2.0000      -0.938876       -25.5481
 113   2.0000      -0.922487       -25.1021
 114   2.0000      -0.918935       -25.0055
 115   2.0000      -0.906486       -24.6667
 116   2.0000      -0.900727       -24.5100
 117   2.0000      -0.898748       -24.4562
 118   2.0000      -0.894086       -24.3293
 119   2.0000      -0.890925       -24.2433
 120   2.0000      -0.879775       -23.9399
 121   2.0000      -0.877899       -23.8888
 122   2.0000      -0.860758       -23.4224
 123   2.0000      -0.854981       -23.2652
 124   2.0000      -0.840991       -22.8845
 125   2.0000      -0.818177       -22.2637
 126   2.0000      -0.809040       -22.0151
 127   2.0000      -0.807816       -21.9818
 128   2.0000      -0.800709       -21.7884
 129   2.0000      -0.791339       -21.5334
 130   2.0000      -0.767247       -20.8778
 131   2.0000      -0.758025       -20.6269
 132   2.0000      -0.749331       -20.3903
 133   2.0000      -0.742012       -20.1912
 134   2.0000      -0.735643       -20.0179
 135   2.0000      -0.734103       -19.9760
 136   2.0000      -0.726527       -19.7698
 137   2.0000      -0.725666       -19.7464
 138   2.0000      -0.718687       -19.5565
 139   2.0000      -0.717981       -19.5372
 140   2.0000      -0.701012       -19.0755
 141   2.0000      -0.688555       -18.7365
 142   2.0000      -0.686020       -18.6675
 143   2.0000      -0.675205       -18.3733
 144   2.0000      -0.665739       -18.1157
 145   2.0000      -0.661397       -17.9975
 146   2.0000      -0.654174       -17.8010
 147   2.0000      -0.652538       -17.7565
 148   2.0000      -0.643286       -17.5047
 149   2.0000      -0.639928       -17.4133
 150   2.0000      -0.633200       -17.2302
 151   2.0000      -0.629336       -17.1251
 152   2.0000      -0.622954       -16.9514
 153   2.0000      -0.614138       -16.7115
 154   2.0000      -0.609264       -16.5789
 155   2.0000      -0.600322       -16.3356
 156   2.0000      -0.591937       -16.1074
 157   2.0000      -0.589555       -16.0426
 158   2.0000      -0.584611       -15.9081
 159   2.0000      -0.583727       -15.8840
 160   2.0000      -0.580978       -15.8092
 161   2.0000      -0.580095       -15.7852
 162   2.0000      -0.579142       -15.7593
 163   2.0000      -0.577932       -15.7263
 164   2.0000      -0.573661       -15.6101
 165   2.0000      -0.571256       -15.5447
 166   2.0000      -0.569204       -15.4888
 167   2.0000      -0.568440       -15.4680
 168   2.0000      -0.565359       -15.3842
 169   2.0000      -0.562543       -15.3076
 170   2.0000      -0.559481       -15.2242
 171   2.0000      -0.551890       -15.0177
 172   2.0000      -0.547790       -14.9061
 173   2.0000      -0.540586       -14.7101
 174   2.0000      -0.538871       -14.6634
 175   2.0000      -0.538436       -14.6516
 176   2.0000      -0.535648       -14.5757
 177   2.0000      -0.534382       -14.5413
 178   2.0000      -0.526128       -14.3167
 179   2.0000      -0.523288       -14.2394
 180   2.0000      -0.522162       -14.2088
 181   2.0000      -0.518952       -14.1214
 182   2.0000      -0.515407       -14.0249
 183   2.0000      -0.513637       -13.9768
 184   2.0000      -0.511000       -13.9050
 185   2.0000      -0.504275       -13.7220
 186   2.0000      -0.499630       -13.5956
 187   2.0000      -0.498617       -13.5681
 188   2.0000      -0.496978       -13.5235
 189   2.0000      -0.495495       -13.4831
 190   2.0000      -0.493393       -13.4259
 191   2.0000      -0.490518       -13.3477
 192   2.0000      -0.485656       -13.2154
 193   2.0000      -0.484888       -13.1945
 194   2.0000      -0.483935       -13.1685
 195   2.0000      -0.482849       -13.1390
 196   2.0000      -0.479887       -13.0584
 197   2.0000      -0.478046       -13.0083
 198   2.0000      -0.477685       -12.9985
 199   2.0000      -0.473396       -12.8817
 200   2.0000      -0.467880       -12.7316
 201   2.0000      -0.465363       -12.6632
 202   2.0000      -0.464502       -12.6397
 203   2.0000      -0.462989       -12.5986
 204   2.0000      -0.461933       -12.5698
 205   2.0000      -0.458800       -12.4846
 206   2.0000      -0.457205       -12.4412
 207   2.0000      -0.455471       -12.3940
 208   2.0000      -0.453582       -12.3426
 209   2.0000      -0.449000       -12.2179
 210   2.0000      -0.443117       -12.0578
 211   2.0000      -0.441644       -12.0177
 212   2.0000      -0.434701       -11.8288
 213   2.0000      -0.434055       -11.8112
 214   2.0000      -0.415392       -11.3034
 215   2.0000      -0.401851       -10.9349
 216   2.0000      -0.401199       -10.9172
 217   2.0000      -0.400784       -10.9059
 218   2.0000      -0.385280       -10.4840
 219   2.0000      -0.384503       -10.4629
 220   2.0000      -0.384373       -10.4593
 221   2.0000      -0.378751       -10.3064
 222   2.0000      -0.376766       -10.2523
 223   2.0000      -0.375593       -10.2204
 224   2.0000      -0.371811       -10.1175
 225   2.0000      -0.369176       -10.0458
 226   2.0000      -0.352836        -9.6012
 227   2.0000      -0.342324        -9.3151
 228   2.0000      -0.338133        -9.2011
 229   2.0000      -0.313032        -8.5180
 230   2.0000      -0.311387        -8.4733
 231   2.0000      -0.286721        -7.8021
 232   0.0000      -0.076093        -2.0706
 233   0.0000      -0.068018        -1.8509
 234   0.0000      -0.044369        -1.2073
 235   0.0000      -0.040949        -1.1143
 236   0.0000      -0.008969        -0.2441

MULLIKEN ATOMIC CHARGES
-----------------------
   0 C :    0.230372
   1 O :   -0.182463
   2 C :   -0.070567
   3 C :    0.002763
   4 C :   -0.040943
   5 C :    0.037945
   6 C :   -0.030894
   7 C :    0.017382
   8 C :    0.280054
   9 C :   -0.377780
  10 C :   -0.127693
  11 N :    0.102270
  12 C :   -0.131312
  13 N :    0.108921
  14 C :   -0.133751
  15 C :    0.084259
  16 C :   -0.154762
  17 C :    0.051071
  18 C :   -0.031236
  19 C :   -0.057433
  20 S :    0.134049
  21 C :    0.118492
  22 C :   -0.054306
  23 C :   -0.032065
  24 C :    0.016038
  25 C :    0.188774
  26 C :   -0.130871
  27 N :   -0.254113
  28 C :    0.048285
  29 C :   -0.042094
  30 C :    0.188933
  31 C :    0.014446
  32 C :   -0.027915
  33 C :   -0.046619
  34 C :    0.119803
  35 C :   -0.147483
  36 C :   -0.055367
  37 C :   -0.027096
  38 C :    0.043775
  39 C :   -0.143374
  40 S :    0.116224
  41 C :    0.082993
  42 C :   -0.134778
  43 C :    0.280764
  44 C :   -0.379723
  45 C :   -0.129481
  46 N :    0.104361
  47 C :   -0.131502
  48 N :    0.107911
  49 C :    0.015515
  50 C :   -0.028079
  51 C :    0.036007
  52 C :   -0.041998
  53 C :    0.004605
  54 C :   -0.072275
  55 C :    0.230897
  56 O :   -0.181046
  57 Br:   -0.012156
  58 Br:   -0.011366
  59 H :    0.030587
  60 H :    0.034532
  61 H :    0.036830
  62 H :    0.031024
  63 H :    0.046663
  64 H :    0.014834
  65 H :    0.020817
  66 H :    0.004943
  67 H :   -0.022084
  68 H :    0.051292
  69 H :    0.055587
  70 H :    0.044214
  71 H :    0.051233
  72 H :    0.046548
  73 H :    0.002704
  74 H :    0.002851
  75 H :    0.000678
  76 H :    0.019785
  77 H :    0.047781
  78 H :    0.030582
  79 H :    0.037945
  80 H :    0.035026
  81 H :    0.031260
Sum of atomic charges:   -0.0000000

LOEWDIN ATOMIC CHARGES
----------------------
   0 C :    0.097359
   1 O :   -0.142626
   2 C :   -0.042086
   3 C :   -0.000082
   4 C :   -0.101897
   5 C :   -0.014280
   6 C :    0.009149
   7 C :   -0.020490
   8 C :    0.080016
   9 C :   -0.146652
  10 C :   -0.012843
  11 N :   -0.055249
  12 C :   -0.019535
  13 N :   -0.051652
  14 C :   -0.113680
  15 C :    0.061239
  16 C :   -0.194067
  17 C :    0.003377
  18 C :   -0.067333
  19 C :   -0.128040
  20 S :    0.461513
  21 C :   -0.040606
  22 C :   -0.040330
  23 C :   -0.002189
  24 C :   -0.041471
  25 C :    0.038280
  26 C :   -0.043067
  27 N :    0.014957
  28 C :    0.039966
  29 C :   -0.064415
  30 C :    0.038008
  31 C :   -0.041166
  32 C :   -0.003063
  33 C :   -0.030484
  34 C :   -0.040841
  35 C :   -0.053929
  36 C :   -0.126354
  37 C :   -0.064030
  38 C :    0.004134
  39 C :   -0.193107
  40 S :    0.451727
  41 C :    0.060706
  42 C :   -0.113507
  43 C :    0.080535
  44 C :   -0.147578
  45 C :   -0.013043
  46 N :   -0.055310
  47 C :   -0.018858
  48 N :   -0.053774
  49 C :   -0.020861
  50 C :    0.009172
  51 C :   -0.014368
  52 C :   -0.101676
  53 C :    0.000196
  54 C :   -0.041926
  55 C :    0.097170
  56 O :   -0.141652
  57 Br:    0.113244
  58 Br:    0.113830
  59 H :    0.047033
  60 H :    0.043804
  61 H :    0.045212
  62 H :    0.045011
  63 H :    0.038466
  64 H :    0.033102
  65 H :    0.024040
  66 H :    0.035901
  67 H :    0.027384
  68 H :    0.031728
  69 H :    0.033741
  70 H :    0.030124
  71 H :    0.034587
  72 H :    0.031435
  73 H :    0.035250
  74 H :    0.030327
  75 H :    0.020466
  76 H :    0.035708
  77 H :    0.039120
  78 H :    0.044555
  79 H :    0.045371
  80 H :    0.043840
  81 H :    0.047333

  Mayer bond orders larger than 0.100000
B(  0-C ,  1-O ) :   2.1576 B(  0-C ,  2-C ) :   0.9547 B(  0-C , 14-C ) :   0.9507
B(  2-C ,  3-C ) :   1.4019 B(  2-C ,  7-C ) :   1.3373 B(  3-C ,  4-C ) :   1.3471
B(  3-C , 59-H ) :   1.0036 B(  4-C ,  5-C ) :   1.3890 B(  4-C , 57-Br) :   1.0075
B(  5-C ,  6-C ) :   1.4042 B(  5-C , 60-H ) :   0.9853 B(  6-C ,  7-C ) :   1.3738
B(  6-C , 61-H ) :   0.9839 B(  7-C ,  8-C ) :   1.0027 B(  8-C ,  9-C ) :   1.6377
B(  8-C , 14-C ) :   1.0924 B(  9-C , 10-C ) :   1.1321 B(  9-C , 12-C ) :   1.1266
B( 10-C , 11-N ) :   2.9693 B( 12-C , 13-N ) :   2.9691 B( 14-C , 15-C ) :   1.6150
B( 15-C , 16-C ) :   1.2356 B( 15-C , 62-H ) :   0.9135 B( 16-C , 17-C ) :   1.4254
B( 16-C , 20-S ) :   1.1012 B( 17-C , 18-C ) :   1.3160 B( 17-C , 63-H ) :   0.9770
B( 18-C , 19-C ) :   1.4609 B( 18-C , 64-H ) :   0.9920 B( 19-C , 20-S ) :   1.1844
B( 19-C , 21-C ) :   1.0698 B( 21-C , 22-C ) :   1.2953 B( 21-C , 26-C ) :   1.3651
B( 22-C , 23-C ) :   1.4620 B( 22-C , 65-H ) :   0.9812 B( 23-C , 24-C ) :   1.3321
B( 23-C , 66-H ) :   0.9971 B( 24-C , 25-C ) :   1.2855 B( 24-C , 31-C ) :   1.1210
B( 25-C , 26-C ) :   1.3270 B( 25-C , 27-N ) :   1.1126 B( 26-C , 67-H ) :   0.9993
B( 27-N , 28-C ) :   0.9487 B( 27-N , 30-C ) :   1.1164 B( 28-C , 29-C ) :   1.0954
B( 28-C , 68-H ) :   0.9515 B( 28-C , 69-H ) :   0.9513 B( 29-C , 70-H ) :   0.9691
B( 29-C , 71-H ) :   0.9718 B( 29-C , 72-H ) :   0.9688 B( 30-C , 31-C ) :   1.2851
B( 30-C , 35-C ) :   1.3470 B( 31-C , 32-C ) :   1.3330 B( 32-C , 33-C ) :   1.4489
B( 32-C , 73-H ) :   0.9964 B( 33-C , 34-C ) :   1.3199 B( 33-C , 74-H ) :   0.9890
B( 34-C , 35-C ) :   1.3374 B( 34-C , 36-C ) :   1.0685 B( 35-C , 75-H ) :   0.9879
B( 36-C , 37-C ) :   1.4654 B( 36-C , 40-S ) :   1.1819 B( 37-C , 38-C ) :   1.3130
B( 37-C , 76-H ) :   0.9940 B( 38-C , 39-C ) :   1.4252 B( 38-C , 77-H ) :   0.9785
B( 39-C , 40-S ) :   1.0979 B( 39-C , 41-C ) :   1.2345 B( 41-C , 42-C ) :   1.6149
B( 41-C , 78-H ) :   0.9138 B( 42-C , 43-C ) :   1.0916 B( 42-C , 55-C ) :   0.9504
B( 43-C , 44-C ) :   1.6364 B( 43-C , 49-C ) :   1.0048 B( 44-C , 45-C ) :   1.1316
B( 44-C , 47-C ) :   1.1290 B( 45-C , 46-N ) :   2.9719 B( 47-C , 48-N ) :   2.9701
B( 49-C , 50-C ) :   1.3735 B( 49-C , 54-C ) :   1.3371 B( 50-C , 51-C ) :   1.4050
B( 50-C , 79-H ) :   0.9834 B( 51-C , 52-C ) :   1.3903 B( 51-C , 80-H ) :   0.9845
B( 52-C , 53-C ) :   1.3462 B( 52-C , 58-Br) :   1.0081 B( 53-C , 54-C ) :   1.4040
B( 53-C , 81-H ) :   1.0034 B( 54-C , 55-C ) :   0.9534 B( 55-C , 56-O ) :   2.1590

-----------------------------------------------------------------------------
         ABSORPTION SPECTRUM VIA TRANSITION ELECTRIC DIPOLE MOMENTS
-----------------------------------------------------------------------------
State   Energy  Wavelength   fosc         T2         TX        TY        TZ
        (cm-1)    (nm)                  (au**2)     (au)      (au)      (au)
-----------------------------------------------------------------------------
   0   22065.3    453.2   3.545252831  52.89479   6.05354  -4.02952  -0.11114
   1   26706.3    374.4   0.165319142   2.03791  -0.50620  -1.32726   0.14164
   2   30948.7    323.1   0.083683696   0.89017   0.76526   0.55139   0.02305
   3   31339.2    319.1   0.032960521   0.34624  -0.19917   0.55359  -0.01066
   4   31580.3    316.7   0.010116571   0.10546   0.18963   0.25912  -0.04856
   5   34335.9    291.2   0.555633136   5.32741  -1.24273  -1.94397   0.06318
   6   35637.8    280.6   0.251416164   2.32251  -0.51247   1.19112   0.80069
   7   36013.0    277.7   0.311872469   2.85097  -0.45396  -1.46235   0.71164
   8   37533.1    266.4   0.067851656   0.59514  -0.26040  -0.23411   0.68741
   9   37774.1    264.7   0.215596886   1.87899   0.92679   0.63935  -0.78185
  10   38401.5    260.4   0.041889928   0.35912  -0.30100   0.04196   0.51648
  11   38605.7    259.0   0.137922931   1.17614   1.04850   0.00309   0.27708
  12   39207.7    255.1   2.005089702  16.83596  -0.08259  -4.08449  -0.38219
  13   39963.2    250.2   0.123620738   1.01837   0.58317   0.08888  -0.81877

Dispersion correction           -0.044942566
FINAL SINGLE POINT ENERGY     -8208.737999908277

DIPOLE MOMENT
-------------
                                X             Y             Z
Electronic contribution:     24.49285      13.25553     -38.49712
Nuclear contribution   :    -23.90617     -13.84541      37.34125
                        -----------------------------------------
Total Dipole Moment    :      0.58668      -0.58988      -1.15586
                        -----------------------------------------
Magnitude (a.u.)       :      1.42414
Magnitude (Debye)      :      3.61987

Rotational constants in cm-1:     0.003159     0.000178     0.000171
Rotational constants in MHz :    94.716102     5.325195     5.127774

                             ****ORCA TERMINATED NORMALLY****
TOTAL RUN TIME: 0 days 0 hours 9 minutes 57 seconds 724 msec
