                         Program Version 4.2.0 -  RELEASE  -
|  1> # ORCA input file
|  2> # SCF done       -114.148068069298          0.000502485130
|  3> ! wb97x-d3 def2-SVP def2/J RIJCOSX Grid4 TightSCF
|  4> %maxcore 5000
|  5> %tddft
|  6>     Mode sTDA
|  7>     Ethresh 5.0
|  8>     maxcore 5000
|  9> end
| 10>
| 11> %pal
| 12>   nprocs 6
| 13>   end
| 14> * xyz 0 1
| 15>    C       -3.15788         1.24422        -0.03967
| 16>    C       -1.82915         1.59546        -0.09425
| 17>    C       -0.86641         0.59199        -0.08140
| 18>    C       -1.26474        -0.76898        -0.01662
| 19>    C       -2.60270        -1.11648         0.05843
| 20>    C       -3.55714        -0.10082         0.04462
| 21>    C        0.56181         0.59242        -0.12297
| 22>    C        0.96244        -0.76724        -0.08969
| 23>    N       -0.15050        -1.57115        -0.04903
| 24>    C        1.52641         1.59392        -0.16648
| 25>    C        2.85461         1.23711        -0.18452
| 26>    C        3.25605        -0.11174        -0.15483
| 27>    C        2.29945        -1.12287        -0.10399
| 28>    C       -0.12639        -3.00485         0.07466
| 29>    C        0.07992        -3.44175         1.52419
| 30>    C        4.67458        -0.45010        -0.17030
| 31>    C        5.17758        -1.59997         0.49182
| 32>    C        6.58399        -1.90085         0.47819
| 33>    C        7.51232        -1.07163        -0.20953
| 34>    C        6.97555         0.03565        -0.85298
| 35>    C        5.61319         0.32977        -0.82754
| 36>    N        4.49240        -2.50023         1.20055
| 37>    S        5.50771        -3.60102         1.77787
| 38>    N        6.86841        -3.00380         1.16654
| 39>    C        8.89277        -1.44628        -0.18248
| 40>    C        9.95700        -0.81548        -0.74762
| 41>    C       -4.97451        -0.43628         0.13478
| 42>    C       -5.96632         0.31565        -0.54391
| 43>    C       -7.35687        -0.03562        -0.43917
| 44>    C       -7.78445        -1.13238         0.35865
| 45>    C       -6.78068        -1.83943         1.00743
| 46>    C       -5.43270        -1.50252         0.89202
| 47>    N       -5.78582         1.36469        -1.34860
| 48>    S       -7.20741         1.85545        -1.90225
| 49>    N       -8.13323         0.77011        -1.16012
| 50>    C       -9.18767        -1.40379         0.42486
| 51>    C       11.25354        -1.36456        -0.60071
| 52>    C        9.93960         0.37774        -1.50052
| 53>    C       -9.83424        -2.38148         1.11470
| 54>    C      -11.24519        -2.47203         1.04315
| 55>    C       -9.25347        -3.37084         1.93598
| 56>    N      -12.38750        -2.54433         0.98322
| 57>    N       -8.84124        -4.20081         2.61345
| 58>    N        9.99204         1.34517        -2.11607
| 59>    N       12.30231        -1.81186        -0.48303
| 60>    H       -3.91643         2.00937        -0.04592
| 61>    H       -1.53546         2.63250        -0.14591
| 62>    H       -2.91107        -2.15023         0.09265
| 63>    H        1.23501         2.63299        -0.17780
| 64>    H        3.60855         2.00898        -0.18362
| 65>    H        2.60925        -2.15423        -0.08258
| 66>    H       -1.06941        -3.40072        -0.30961
| 67>    H        0.68309        -3.39228        -0.55068
| 68>    H       -0.72244        -3.05978         2.15128
| 69>    H        0.08957        -4.52623         1.59015
| 70>    H        1.02557        -3.05893         1.90051
| 71>    H        7.62811         0.69739        -1.39981
| 72>    H        5.27692         1.19906        -1.37138
| 73>    H        9.09770        -2.35698         0.36800
| 74>    H       -7.04364        -2.67841         1.63179
| 75>    H       -4.71759        -2.08977         1.44796
| 76>    H       -9.80055        -0.72748        -0.15942
| 77> *
| 78>
| 79>                          ****END OF INPUT****

CARTESIAN COORDINATES (ANGSTROEM)
---------------------------------
  C     -3.157880    1.244220   -0.039670
  C     -1.829150    1.595460   -0.094250
  C     -0.866410    0.591990   -0.081400
  C     -1.264740   -0.768980   -0.016620
  C     -2.602700   -1.116480    0.058430
  C     -3.557140   -0.100820    0.044620
  C      0.561810    0.592420   -0.122970
  C      0.962440   -0.767240   -0.089690
  N     -0.150500   -1.571150   -0.049030
  C      1.526410    1.593920   -0.166480
  C      2.854610    1.237110   -0.184520
  C      3.256050   -0.111740   -0.154830
  C      2.299450   -1.122870   -0.103990
  C     -0.126390   -3.004850    0.074660
  C      0.079920   -3.441750    1.524190
  C      4.674580   -0.450100   -0.170300
  C      5.177580   -1.599970    0.491820
  C      6.583990   -1.900850    0.478190
  C      7.512320   -1.071630   -0.209530
  C      6.975550    0.035650   -0.852980
  C      5.613190    0.329770   -0.827540
  N      4.492400   -2.500230    1.200550
  S      5.507710   -3.601020    1.777870
  N      6.868410   -3.003800    1.166540
  C      8.892770   -1.446280   -0.182480
  C      9.957000   -0.815480   -0.747620
  C     -4.974510   -0.436280    0.134780
  C     -5.966320    0.315650   -0.543910
  C     -7.356870   -0.035620   -0.439170
  C     -7.784450   -1.132380    0.358650
  C     -6.780680   -1.839430    1.007430
  C     -5.432700   -1.502520    0.892020
  N     -5.785820    1.364690   -1.348600
  S     -7.207410    1.855450   -1.902250
  N     -8.133230    0.770110   -1.160120
  C     -9.187670   -1.403790    0.424860
  C     11.253540   -1.364560   -0.600710
  C      9.939600    0.377740   -1.500520
  C     -9.834240   -2.381480    1.114700
  C    -11.245190   -2.472030    1.043150
  C     -9.253470   -3.370840    1.935980
  N    -12.387500   -2.544330    0.983220
  N     -8.841240   -4.200810    2.613450
  N      9.992040    1.345170   -2.116070
  N     12.302310   -1.811860   -0.483030
  H     -3.916430    2.009370   -0.045920
  H     -1.535460    2.632500   -0.145910
  H     -2.911070   -2.150230    0.092650
  H      1.235010    2.632990   -0.177800
  H      3.608550    2.008980   -0.183620
  H      2.609250   -2.154230   -0.082580
  H     -1.069410   -3.400720   -0.309610
  H      0.683090   -3.392280   -0.550680
  H     -0.722440   -3.059780    2.151280
  H      0.089570   -4.526230    1.590150
  H      1.025570   -3.058930    1.900510
  H      7.628110    0.697390   -1.399810
  H      5.276920    1.199060   -1.371380
  H      9.097700   -2.356980    0.368000
  H     -7.043640   -2.678410    1.631790
  H     -4.717590   -2.089770    1.447960
  H     -9.800550   -0.727480   -0.159420

 Total Charge           Charge          ....    0
 Multiplicity           Mult            ....    1
 Number of Electrons    NEL             ....  316
 Basis Dimension        Dim             ....  723

ORBITAL ENERGIES
----------------

  NO   OCC          E(Eh)            E(eV)
   0   2.0000     -89.065017     -2423.5823
   1   2.0000     -89.062612     -2423.5169
   2   2.0000     -14.498313      -394.5192
   3   2.0000     -14.494994      -394.4288
   4   2.0000     -14.492857      -394.3707
   5   2.0000     -14.491443      -394.3322
   6   2.0000     -14.490104      -394.2958
   7   2.0000     -14.458994      -393.4492
   8   2.0000     -14.458908      -393.4469
   9   2.0000     -14.446883      -393.1197
  10   2.0000     -14.446483      -393.1088
  11   2.0000     -10.384492      -282.5764
  12   2.0000     -10.384012      -282.5633
  13   2.0000     -10.376116      -282.3485
  14   2.0000     -10.374838      -282.3137
  15   2.0000     -10.374124      -282.2943
  16   2.0000     -10.372199      -282.2419
  17   2.0000     -10.370606      -282.1985
  18   2.0000     -10.370180      -282.1869
  19   2.0000     -10.358461      -281.8680
  20   2.0000     -10.357957      -281.8543
  21   2.0000     -10.357824      -281.8507
  22   2.0000     -10.354726      -281.7664
  23   2.0000     -10.353980      -281.7461
  24   2.0000     -10.352338      -281.7014
  25   2.0000     -10.350069      -281.6397
  26   2.0000     -10.349021      -281.6112
  27   2.0000     -10.348310      -281.5918
  28   2.0000     -10.346460      -281.5415
  29   2.0000     -10.346139      -281.5328
  30   2.0000     -10.346117      -281.5321
  31   2.0000     -10.345710      -281.5211
  32   2.0000     -10.335276      -281.2372
  33   2.0000     -10.335199      -281.2351
  34   2.0000     -10.329654      -281.0842
  35   2.0000     -10.329609      -281.0830
  36   2.0000     -10.320249      -280.8282
  37   2.0000     -10.316898      -280.7371
  38   2.0000     -10.315713      -280.7048
  39   2.0000     -10.314885      -280.6823
  40   2.0000     -10.314139      -280.6620
  41   2.0000     -10.313830      -280.6536
  42   2.0000     -10.311715      -280.5960
  43   2.0000     -10.306459      -280.4530
  44   2.0000     -10.306436      -280.4524
  45   2.0000      -8.175682      -222.4716
  46   2.0000      -8.173184      -222.4036
  47   2.0000      -6.137150      -167.0003
  48   2.0000      -6.134636      -166.9319
  49   2.0000      -6.129136      -166.7823
  50   2.0000      -6.128259      -166.7584
  51   2.0000      -6.126622      -166.7139
  52   2.0000      -6.125831      -166.6923
  53   2.0000      -1.180810       -32.1315
  54   2.0000      -1.178418       -32.0664
  55   2.0000      -1.133950       -30.8564
  56   2.0000      -1.054591       -28.6969
  57   2.0000      -1.054439       -28.6927
  58   2.0000      -1.037698       -28.2372
  59   2.0000      -1.035346       -28.1732
  60   2.0000      -1.031985       -28.0817
  61   2.0000      -1.031706       -28.0741
  62   2.0000      -1.026329       -27.9278
  63   2.0000      -1.025459       -27.9041
  64   2.0000      -0.996923       -27.1276
  65   2.0000      -0.994281       -27.0558
  66   2.0000      -0.975147       -26.5351
  67   2.0000      -0.971964       -26.4485
  68   2.0000      -0.946624       -25.7589
  69   2.0000      -0.920945       -25.0602
  70   2.0000      -0.915823       -24.9208
  71   2.0000      -0.914719       -24.8908
  72   2.0000      -0.910829       -24.7849
  73   2.0000      -0.891949       -24.2712
  74   2.0000      -0.891445       -24.2575
  75   2.0000      -0.864826       -23.5331
  76   2.0000      -0.852671       -23.2024
  77   2.0000      -0.833701       -22.6862
  78   2.0000      -0.811546       -22.0833
  79   2.0000      -0.791450       -21.5364
  80   2.0000      -0.786765       -21.4090
  81   2.0000      -0.784809       -21.3557
  82   2.0000      -0.769582       -20.9414
  83   2.0000      -0.762541       -20.7498
  84   2.0000      -0.761953       -20.7338
  85   2.0000      -0.742200       -20.1963
  86   2.0000      -0.735095       -20.0030
  87   2.0000      -0.729395       -19.8478
  88   2.0000      -0.715039       -19.4572
  89   2.0000      -0.711817       -19.3695
  90   2.0000      -0.702966       -19.1287
  91   2.0000      -0.691347       -18.8125
  92   2.0000      -0.668659       -18.1951
  93   2.0000      -0.655779       -17.8447
  94   2.0000      -0.652324       -17.7506
  95   2.0000      -0.648253       -17.6399
  96   2.0000      -0.640374       -17.4255
  97   2.0000      -0.635172       -17.2839
  98   2.0000      -0.624972       -17.0063
  99   2.0000      -0.620076       -16.8731
 100   2.0000      -0.614234       -16.7141
 101   2.0000      -0.604183       -16.4406
 102   2.0000      -0.602520       -16.3954
 103   2.0000      -0.597238       -16.2517
 104   2.0000      -0.593411       -16.1475
 105   2.0000      -0.589520       -16.0416
 106   2.0000      -0.580976       -15.8092
 107   2.0000      -0.577786       -15.7224
 108   2.0000      -0.569073       -15.4853
 109   2.0000      -0.562852       -15.3160
 110   2.0000      -0.559999       -15.2384
 111   2.0000      -0.552400       -15.0316
 112   2.0000      -0.546742       -14.8776
 113   2.0000      -0.545175       -14.8350
 114   2.0000      -0.544968       -14.8293
 115   2.0000      -0.543427       -14.7874
 116   2.0000      -0.532310       -14.4849
 117   2.0000      -0.520557       -14.1651
 118   2.0000      -0.515490       -14.0272
 119   2.0000      -0.513561       -13.9747
 120   2.0000      -0.511027       -13.9058
 121   2.0000      -0.509828       -13.8731
 122   2.0000      -0.508697       -13.8423
 123   2.0000      -0.505701       -13.7608
 124   2.0000      -0.503561       -13.7026
 125   2.0000      -0.499037       -13.5795
 126   2.0000      -0.491599       -13.3771
 127   2.0000      -0.488248       -13.2859
 128   2.0000      -0.488034       -13.2801
 129   2.0000      -0.486212       -13.2305
 130   2.0000      -0.478377       -13.0173
 131   2.0000      -0.476174       -12.9574
 132   2.0000      -0.475855       -12.9487
 133   2.0000      -0.475216       -12.9313
 134   2.0000      -0.469016       -12.7626
 135   2.0000      -0.464857       -12.6494
 136   2.0000      -0.464087       -12.6284
 137   2.0000      -0.463895       -12.6232
 138   2.0000      -0.461713       -12.5638
 139   2.0000      -0.460061       -12.5189
 140   2.0000      -0.456505       -12.4221
 141   2.0000      -0.448273       -12.1981
 142   2.0000      -0.448038       -12.1917
 143   2.0000      -0.442431       -12.0392
 144   2.0000      -0.441069       -12.0021
 145   2.0000      -0.440048       -11.9743
 146   2.0000      -0.419937       -11.4271
 147   2.0000      -0.415487       -11.3060
 148   2.0000      -0.413484       -11.2515
 149   2.0000      -0.407824       -11.0975
 150   2.0000      -0.395650       -10.7662
 151   2.0000      -0.383726       -10.4417
 152   2.0000      -0.382114       -10.3979
 153   2.0000      -0.370771       -10.0892
 154   2.0000      -0.353762        -9.6264
 155   2.0000      -0.328762        -8.9461
 156   2.0000      -0.306425        -8.3383
 157   2.0000      -0.298562        -8.1243
 158   0.0000      -0.079151        -2.1538
 159   0.0000      -0.071093        -1.9345
 160   0.0000      -0.015670        -0.4264
 161   0.0000      -0.013887        -0.3779
 162   0.0000       0.006344         0.1726

MULLIKEN ATOMIC CHARGES
-----------------------
   0 C :    0.004102
   1 C :   -0.044786
   2 C :    0.025472
   3 C :    0.182005
   4 C :   -0.129929
   5 C :    0.037852
   6 C :    0.030994
   7 C :    0.167192
   8 N :   -0.253756
   9 C :   -0.039220
  10 C :   -0.040040
  11 C :    0.040652
  12 C :   -0.087294
  13 C :    0.054461
  14 C :   -0.045181
  15 C :    0.071079
  16 C :    0.038233
  17 C :    0.042097
  18 C :   -0.017824
  19 C :   -0.012389
  20 C :   -0.055147
  21 N :   -0.317193
  22 S :    0.535219
  23 N :   -0.307943
  24 C :    0.161754
  25 C :   -0.331079
  26 C :    0.064426
  27 C :    0.030801
  28 C :    0.040637
  29 C :   -0.019972
  30 C :   -0.013107
  31 C :   -0.050925
  32 N :   -0.300280
  33 S :    0.536789
  34 N :   -0.309380
  35 C :    0.159493
  36 C :   -0.077875
  37 C :   -0.087357
  38 C :   -0.329131
  39 C :   -0.078451
  40 C :   -0.084486
  41 N :    0.084120
  42 N :    0.096868
  43 N :    0.101042
  44 N :    0.084121
  45 H :    0.011777
  46 H :    0.001562
  47 H :   -0.016168
  48 H :    0.002124
  49 H :    0.005866
  50 H :   -0.007911
  51 H :    0.048682
  52 H :    0.051146
  53 H :    0.041970
  54 H :    0.045974
  55 H :    0.051145
  56 H :    0.037056
  57 H :    0.023136
  58 H :    0.045879
  59 H :    0.035254
  60 H :    0.019296
  61 H :    0.046544
Sum of atomic charges:   -0.0000000

LOEWDIN ATOMIC CHARGES
----------------------
   0 C :   -0.024101
   1 C :   -0.006890
   2 C :   -0.040944
   3 C :    0.035407
   4 C :   -0.048673
   5 C :   -0.022719
   6 C :   -0.040199
   7 C :    0.033785
   8 N :    0.013772
   9 C :   -0.007613
  10 C :   -0.035739
  11 C :   -0.025460
  12 C :   -0.034652
  13 C :    0.040325
  14 C :   -0.065075
  15 C :    0.012967
  16 C :   -0.044767
  17 C :   -0.035307
  18 C :   -0.068167
  19 C :    0.031532
  20 C :   -0.018308
  21 N :   -0.279664
  22 S :    0.650014
  23 N :   -0.290031
  24 C :    0.091467
  25 C :   -0.127527
  26 C :    0.013832
  27 C :   -0.047179
  28 C :   -0.035967
  29 C :   -0.068009
  30 C :    0.029948
  31 C :   -0.021729
  32 N :   -0.272219
  33 S :    0.653668
  34 N :   -0.292664
  35 C :    0.092430
  36 C :   -0.017074
  37 C :   -0.015848
  38 C :   -0.128395
  39 C :   -0.017110
  40 C :   -0.015255
  41 N :   -0.045256
  42 N :   -0.044737
  43 N :   -0.042935
  44 N :   -0.044943
  45 H :    0.029734
  46 H :    0.034010
  47 H :    0.027138
  48 H :    0.034199
  49 H :    0.029591
  50 H :    0.026887
  51 H :    0.030879
  52 H :    0.031760
  53 H :    0.029924
  54 H :    0.032408
  55 H :    0.032288
  56 H :    0.045176
  57 H :    0.040832
  58 H :    0.058904
  59 H :    0.044530
  60 H :    0.038641
  61 H :    0.059105

  Mayer bond orders larger than 0.100000
B(  0-C ,  1-C ) :   1.4403 B(  0-C ,  5-C ) :   1.3342 B(  0-C , 45-H ) :   0.9829
B(  1-C ,  2-C ) :   1.3302 B(  1-C , 46-H ) :   1.0000 B(  2-C ,  3-C ) :   1.2867
B(  2-C ,  6-C ) :   1.1195 B(  3-C ,  4-C ) :   1.3178 B(  3-C ,  8-N ) :   1.1126
B(  4-C ,  5-C ) :   1.3644 B(  4-C , 47-H ) :   0.9988 B(  5-C , 26-C ) :   1.0042
B(  6-C ,  7-C ) :   1.2903 B(  6-C ,  9-C ) :   1.3304 B(  7-C ,  8-N ) :   1.1117
B(  7-C , 12-C ) :   1.3220 B(  8-N , 13-C ) :   0.9506 B(  9-C , 10-C ) :   1.4447
B(  9-C , 48-H ) :   0.9985 B( 10-C , 11-C ) :   1.3182 B( 10-C , 49-H ) :   0.9867
B( 11-C , 12-C ) :   1.3701 B( 11-C , 15-C ) :   1.0139 B( 12-C , 50-H ) :   0.9951
B( 13-C , 14-C ) :   1.0960 B( 13-C , 51-H ) :   0.9528 B( 13-C , 52-H ) :   0.9512
B( 14-C , 53-H ) :   0.9687 B( 14-C , 54-H ) :   0.9719 B( 14-C , 55-H ) :   0.9680
B( 15-C , 16-C ) :   1.2027 B( 15-C , 18-C ) :   0.1015 B( 15-C , 20-C ) :   1.4915
B( 16-C , 17-C ) :   1.1585 B( 16-C , 21-N ) :   1.5039 B( 17-C , 18-C ) :   1.1729
B( 17-C , 23-N ) :   1.5537 B( 18-C , 19-C ) :   1.4425 B( 18-C , 24-C ) :   1.1159
B( 19-C , 20-C ) :   1.2612 B( 19-C , 56-H ) :   0.9806 B( 20-C , 57-H ) :   0.9948
B( 21-N , 22-S ) :   1.2823 B( 21-N , 23-N ) :   0.1478 B( 22-S , 23-N ) :   1.2658
B( 24-C , 25-C ) :   1.7188 B( 24-C , 58-H ) :   0.9544 B( 25-C , 36-C ) :   1.0909
B( 25-C , 37-C ) :   1.0834 B( 26-C , 27-C ) :   1.2059 B( 26-C , 29-C ) :   0.1006
B( 26-C , 31-C ) :   1.4968 B( 27-C , 28-C ) :   1.1578 B( 27-C , 32-N ) :   1.5122
B( 28-C , 29-C ) :   1.1740 B( 28-C , 34-N ) :   1.5538 B( 29-C , 30-C ) :   1.4440
B( 29-C , 35-C ) :   1.1160 B( 30-C , 31-C ) :   1.2612 B( 30-C , 59-H ) :   0.9801
B( 31-C , 60-H ) :   0.9931 B( 32-N , 33-S ) :   1.2907 B( 32-N , 34-N ) :   0.1478
B( 33-S , 34-N ) :   1.2630 B( 35-C , 38-C ) :   1.7177 B( 35-C , 61-H ) :   0.9552
B( 36-C , 44-N ) :   3.0387 B( 37-C , 43-N ) :   2.9775 B( 38-C , 39-C ) :   1.0899
B( 38-C , 40-C ) :   1.0829 B( 39-C , 41-N ) :   3.0395 B( 40-C , 42-N ) :   2.9761

-----------------------------------------------------------------------------
         ABSORPTION SPECTRUM VIA TRANSITION ELECTRIC DIPOLE MOMENTS
-----------------------------------------------------------------------------
State   Energy  Wavelength   fosc         T2         TX        TY        TZ
        (cm-1)    (nm)                  (au**2)     (au)      (au)      (au)
-----------------------------------------------------------------------------
   0   23470.8    426.1   2.586807822  36.28379   5.94701   0.63867  -0.71345
   1   27412.0    364.8   0.094305519   1.13259  -0.02280   1.04039  -0.22284
   2   28783.7    347.4   0.061989237   0.70900   0.10427  -0.83503  -0.02908
   3   31122.8    321.3   0.023924736   0.25307   0.47945   0.08606  -0.12568
   4   35376.2    282.7   0.162691496   1.51401   0.77361   0.73839  -0.60854
   5   35671.4    280.3   0.031645047   0.29205   0.05188  -0.46160   0.27620
   6   38427.1    260.2   0.338511337   2.90009  -1.54610  -0.54628   0.45960
   7   40040.9    249.7   0.022185387   0.18241  -0.23144   0.32992   0.14141

Dispersion correction           -0.033099256
FINAL SINGLE POINT ENERGY     -2592.814292760842

DIPOLE MOMENT
-------------
                                X             Y             Z
Electronic contribution:     -2.93155       3.36946      -3.53019
Nuclear contribution   :      2.58867      -2.95050       3.39293
                        -----------------------------------------
Total Dipole Moment    :     -0.34288       0.41895      -0.13725
                        -----------------------------------------
Magnitude (a.u.)       :      0.55850
Magnitude (Debye)      :      1.41961

Rotational constants in cm-1:     0.006918     0.000595     0.000552
Rotational constants in MHz :   207.409393    17.828597    16.559457

                             ****ORCA TERMINATED NORMALLY****
TOTAL RUN TIME: 0 days 0 hours 5 minutes 44 seconds 959 msec
