                         Program Version 4.2.0 -  RELEASE  -
|  1> # ORCA input file
|  2> # SCF done       -177.528624252023          0.000733873458
|  3> ! wb97x-d3 def2-SVP def2/J RIJCOSX Grid4 TightSCF
|  4> %maxcore 5000
|  5> %tddft
|  6>     Mode sTDA
|  7>     Ethresh 5.0
|  8>     maxcore 5000
|  9> end
| 10>
| 11> %pal
| 12>   nprocs 6
| 13>   end
| 14> * xyz 0 1
| 15>    C        1.51460        -3.57071         1.97539
| 16>    C        1.83228        -4.60827         2.84555
| 17>    C        3.07925        -4.67147         3.47626
| 18>    C        4.02986        -3.68547         3.24469
| 19>    C        3.70741        -2.65685         2.38388
| 20>    C        2.46123        -2.58676         1.74184
| 21>    C        4.53861        -1.49771         1.99309
| 22>    C        3.68872        -0.68268         1.10237
| 23>    C        2.43830        -1.39336         0.89816
| 24>    C        3.92897         0.57535         0.60107
| 25>    C        5.05324         1.40803         0.66875
| 26>    C        6.34477         1.22052         1.16548
| 27>    C        7.13572         2.33761         1.01471
| 28>    C        6.46839         3.41025         0.39619
| 29>    S        4.85712         3.03163        -0.01360
| 30>    C        8.55418         2.71929         1.35759
| 31>    C        8.58161         4.14670         0.87376
| 32>    C        7.35100         4.50521         0.31502
| 33>    C        9.50265         5.18205         0.85575
| 34>    C        8.98622         6.33718         0.28508
| 35>    S        7.32812         6.12891        -0.24490
| 36>    C        9.63750         7.58251         0.12562
| 37>    S       11.27049         7.80505         0.72569
| 38>    C       11.24919         9.43273         0.18269
| 39>    C       10.04373         9.78025        -0.43385
| 40>    C        9.13488         8.73395        -0.46423
| 41>    C       12.11015        10.54697         0.17086
| 42>    C       11.45419        11.62358        -0.44099
| 43>    C       10.07977        11.21194        -0.90573
| 44>    S       13.69571        10.93585         0.67658
| 45>    C       13.49938        12.57234         0.05642
| 46>    C       12.22690        12.76744        -0.47612
| 47>    C       14.50499        13.55052         0.17215
| 48>    C       15.84793        13.38249         0.35625
| 49>    C       16.71084        12.24052         0.15973
| 50>    C       17.94239        12.49908         0.90292
| 51>    C       17.93648        13.83912         1.33233
| 52>    C       16.66051        14.47959         0.93719
| 53>    C       19.02613        11.68609         1.18414
| 54>    C       20.09517        12.22608         1.89159
| 55>    C       20.08920        13.56305         2.30414
| 56>    C       19.00036        14.38037         2.02391
| 57>   Cl       21.43206        14.20103         3.16380
| 58>   Cl       21.44087        11.22542         2.26014
| 59>    O       16.32673        15.63109         1.09516
| 60>    C       16.54378        11.25050        -0.77502
| 61>    C       17.46597        10.20688        -0.98750
| 62>    C       15.47058        11.22529        -1.68905
| 63>    C        9.97332        11.29705        -2.44192
| 64>    C        8.97006        12.05736        -0.25587
| 65>    C        9.01195        12.02625         1.26715
| 66>    C       11.04589        10.49232        -3.16633
| 67>    C        9.57141         1.84387         0.60044
| 68>    C        8.81537         2.62449         2.87228
| 69>    C        7.85674         3.47324         3.69837
| 70>    C        9.38166         1.87456        -0.91118
| 71>    O        5.67730        -1.29879         2.36625
| 72>   Cl        0.66225        -5.82956         3.14504
| 73>   Cl        3.43834        -5.96892         4.54257
| 74>    C        1.42292        -1.06855         0.03542
| 75>    C        0.23801        -1.82211        -0.10726
| 76>    C        1.40110         0.02251        -0.85951
| 77>    N        1.29523         0.87017        -1.62783
| 78>    N       -0.74916        -2.38304        -0.27654
| 79>    N       18.17530         9.32707        -1.18823
| 80>    N       14.63796        11.20492        -2.47972
| 81>    H        0.54254        -3.55688         1.51108
| 82>    H        4.99523        -3.71929         3.72440
| 83>    H        3.10033         1.03128         0.07200
| 84>    H        6.64957         0.29519         1.61770
| 85>    H       10.50774         5.13058         1.23450
| 86>    H        8.14762         8.77574        -0.88846
| 87>    H       11.92712        13.70907        -0.89947
| 88>    H       14.16096        14.58050         0.19096
| 89>    H       19.05892        10.65182         0.88194
| 90>    H       18.98652        15.41223         2.33737
| 91>    H        8.98504        10.93725        -2.73597
| 92>    H       10.05045        12.34663        -2.73128
| 93>    H        9.07475        13.08738        -0.60144
| 94>    H        8.00444        11.68275        -0.60072
| 95>    H        9.96059        12.40990         1.63576
| 96>    H        8.21287        12.64129         1.67327
| 97>    H        8.88442        11.01136         1.63698
| 98>    H       10.97742         9.43725        -2.91060
| 99>    H       10.91463        10.59090        -4.24084
|100>    H       12.04265        10.84440        -2.91231
|101>    H       10.57625         2.19184         0.84750
|102>    H        9.47018         0.81783         0.95792
|103>    H        8.72094         1.57898         3.16987
|104>    H        9.84185         2.94182         3.06595
|105>    H        6.82817         3.15742         3.54058
|106>    H        8.08725         3.36889         4.75551
|107>    H        7.94019         4.52470         3.43198
|108>    H        9.49484         2.88538        -1.29676
|109>    H       10.12431         1.24140        -1.38995
|110>    H        8.39451         1.50944        -1.18494
|111> *
|112>
|113>                          ****END OF INPUT****

CARTESIAN COORDINATES (ANGSTROEM)
---------------------------------
  C      1.514600   -3.570710    1.975390
  C      1.832280   -4.608270    2.845550
  C      3.079250   -4.671470    3.476260
  C      4.029860   -3.685470    3.244690
  C      3.707410   -2.656850    2.383880
  C      2.461230   -2.586760    1.741840
  C      4.538610   -1.497710    1.993090
  C      3.688720   -0.682680    1.102370
  C      2.438300   -1.393360    0.898160
  C      3.928970    0.575350    0.601070
  C      5.053240    1.408030    0.668750
  C      6.344770    1.220520    1.165480
  C      7.135720    2.337610    1.014710
  C      6.468390    3.410250    0.396190
  S      4.857120    3.031630   -0.013600
  C      8.554180    2.719290    1.357590
  C      8.581610    4.146700    0.873760
  C      7.351000    4.505210    0.315020
  C      9.502650    5.182050    0.855750
  C      8.986220    6.337180    0.285080
  S      7.328120    6.128910   -0.244900
  C      9.637500    7.582510    0.125620
  S     11.270490    7.805050    0.725690
  C     11.249190    9.432730    0.182690
  C     10.043730    9.780250   -0.433850
  C      9.134880    8.733950   -0.464230
  C     12.110150   10.546970    0.170860
  C     11.454190   11.623580   -0.440990
  C     10.079770   11.211940   -0.905730
  S     13.695710   10.935850    0.676580
  C     13.499380   12.572340    0.056420
  C     12.226900   12.767440   -0.476120
  C     14.504990   13.550520    0.172150
  C     15.847930   13.382490    0.356250
  C     16.710840   12.240520    0.159730
  C     17.942390   12.499080    0.902920
  C     17.936480   13.839120    1.332330
  C     16.660510   14.479590    0.937190
  C     19.026130   11.686090    1.184140
  C     20.095170   12.226080    1.891590
  C     20.089200   13.563050    2.304140
  C     19.000360   14.380370    2.023910
  Cl    21.432060   14.201030    3.163800
  Cl    21.440870   11.225420    2.260140
  O     16.326730   15.631090    1.095160
  C     16.543780   11.250500   -0.775020
  C     17.465970   10.206880   -0.987500
  C     15.470580   11.225290   -1.689050
  C      9.973320   11.297050   -2.441920
  C      8.970060   12.057360   -0.255870
  C      9.011950   12.026250    1.267150
  C     11.045890   10.492320   -3.166330
  C      9.571410    1.843870    0.600440
  C      8.815370    2.624490    2.872280
  C      7.856740    3.473240    3.698370
  C      9.381660    1.874560   -0.911180
  O      5.677300   -1.298790    2.366250
  Cl     0.662250   -5.829560    3.145040
  Cl     3.438340   -5.968920    4.542570
  C      1.422920   -1.068550    0.035420
  C      0.238010   -1.822110   -0.107260
  C      1.401100    0.022510   -0.859510
  N      1.295230    0.870170   -1.627830
  N     -0.749160   -2.383040   -0.276540
  N     18.175300    9.327070   -1.188230
  N     14.637960   11.204920   -2.479720
  H      0.542540   -3.556880    1.511080
  H      4.995230   -3.719290    3.724400
  H      3.100330    1.031280    0.072000
  H      6.649570    0.295190    1.617700
  H     10.507740    5.130580    1.234500
  H      8.147620    8.775740   -0.888460
  H     11.927120   13.709070   -0.899470
  H     14.160960   14.580500    0.190960
  H     19.058920   10.651820    0.881940
  H     18.986520   15.412230    2.337370
  H      8.985040   10.937250   -2.735970
  H     10.050450   12.346630   -2.731280
  H      9.074750   13.087380   -0.601440
  H      8.004440   11.682750   -0.600720
  H      9.960590   12.409900    1.635760
  H      8.212870   12.641290    1.673270
  H      8.884420   11.011360    1.636980
  H     10.977420    9.437250   -2.910600
  H     10.914630   10.590900   -4.240840
  H     12.042650   10.844400   -2.912310
  H     10.576250    2.191840    0.847500
  H      9.470180    0.817830    0.957920
  H      8.720940    1.578980    3.169870
  H      9.841850    2.941820    3.065950
  H      6.828170    3.157420    3.540580
  H      8.087250    3.368890    4.755510
  H      7.940190    4.524700    3.431980
  H      9.494840    2.885380   -1.296760
  H     10.124310    1.241400   -1.389950
  H      8.394510    1.509440   -1.184940

 Total Charge           Charge          ....    0
 Multiplicity           Mult            ....    1
 Number of Electrons    NEL             ....  518
 Basis Dimension        Dim             .... 1106

ORBITAL ENERGIES
----------------

  NO   OCC          E(Eh)            E(eV)
   0   2.0000    -101.626035     -2765.3850
   1   2.0000    -101.625394     -2765.3676
   2   2.0000    -101.624708     -2765.3489
   3   2.0000    -101.622560     -2765.2905
   4   2.0000     -89.007593     -2422.0197
   5   2.0000     -89.007097     -2422.0063
   6   2.0000     -89.005889     -2421.9734
   7   2.0000     -89.004481     -2421.9351
   8   2.0000     -19.258429      -524.0485
   9   2.0000     -19.255202      -523.9607
  10   2.0000     -14.453486      -393.2993
  11   2.0000     -14.452839      -393.2817
  12   2.0000     -14.451441      -393.2437
  13   2.0000     -14.447909      -393.1476
  14   2.0000     -10.408051      -283.2175
  15   2.0000     -10.405657      -283.1523
  16   2.0000     -10.393168      -282.8125
  17   2.0000     -10.392303      -282.7889
  18   2.0000     -10.390452      -282.7386
  19   2.0000     -10.389915      -282.7240
  20   2.0000     -10.383497      -282.5493
  21   2.0000     -10.380785      -282.4755
  22   2.0000     -10.379930      -282.4522
  23   2.0000     -10.376223      -282.3514
  24   2.0000     -10.368443      -282.1397
  25   2.0000     -10.367042      -282.1016
  26   2.0000     -10.366885      -282.0973
  27   2.0000     -10.364667      -282.0369
  28   2.0000     -10.361570      -281.9527
  29   2.0000     -10.361465      -281.9498
  30   2.0000     -10.355828      -281.7964
  31   2.0000     -10.354853      -281.7699
  32   2.0000     -10.354720      -281.7663
  33   2.0000     -10.354181      -281.7516
  34   2.0000     -10.353938      -281.7450
  35   2.0000     -10.353490      -281.7328
  36   2.0000     -10.352606      -281.7087
  37   2.0000     -10.352287      -281.7001
  38   2.0000     -10.349305      -281.6189
  39   2.0000     -10.348492      -281.5968
  40   2.0000     -10.344978      -281.5012
  41   2.0000     -10.344641      -281.4920
  42   2.0000     -10.342054      -281.4216
  43   2.0000     -10.341582      -281.4088
  44   2.0000     -10.339089      -281.3409
  45   2.0000     -10.337717      -281.3036
  46   2.0000     -10.337649      -281.3017
  47   2.0000     -10.337343      -281.2934
  48   2.0000     -10.333861      -281.1986
  49   2.0000     -10.331925      -281.1460
  50   2.0000     -10.331664      -281.1389
  51   2.0000     -10.331651      -281.1385
  52   2.0000     -10.331527      -281.1351
  53   2.0000     -10.331109      -281.1238
  54   2.0000     -10.329961      -281.0925
  55   2.0000     -10.327886      -281.0361
  56   2.0000     -10.324706      -280.9495
  57   2.0000     -10.323221      -280.9091
  58   2.0000     -10.313283      -280.6387
  59   2.0000     -10.311482      -280.5897
  60   2.0000     -10.311418      -280.5879
  61   2.0000     -10.308761      -280.5157
  62   2.0000     -10.292749      -280.0799
  63   2.0000     -10.290901      -280.0297
  64   2.0000     -10.290033      -280.0060
  65   2.0000     -10.279735      -279.7258
  66   2.0000      -9.602849      -261.3068
  67   2.0000      -9.602222      -261.2897
  68   2.0000      -9.601475      -261.2694
  69   2.0000      -9.599320      -261.2108
  70   2.0000      -8.120856      -220.9797
  71   2.0000      -8.120365      -220.9664
  72   2.0000      -8.118824      -220.9244
  73   2.0000      -8.117949      -220.9006
  74   2.0000      -7.362860      -200.3536
  75   2.0000      -7.362254      -200.3371
  76   2.0000      -7.361481      -200.3161
  77   2.0000      -7.359344      -200.2579
  78   2.0000      -7.352874      -200.0819
  79   2.0000      -7.352239      -200.0646
  80   2.0000      -7.352224      -200.0642
  81   2.0000      -7.351584      -200.0468
  82   2.0000      -7.351521      -200.0451
  83   2.0000      -7.350858      -200.0270
  84   2.0000      -7.349346      -199.9859
  85   2.0000      -7.348699      -199.9683
  86   2.0000      -6.080480      -165.4583
  87   2.0000      -6.079980      -165.4447
  88   2.0000      -6.078404      -165.4018
  89   2.0000      -6.077335      -165.3727
  90   2.0000      -6.076321      -165.3451
  91   2.0000      -6.075827      -165.3317
  92   2.0000      -6.074243      -165.2885
  93   2.0000      -6.073288      -165.2626
  94   2.0000      -6.072984      -165.2543
  95   2.0000      -6.072505      -165.2413
  96   2.0000      -6.071092      -165.2028
  97   2.0000      -6.070386      -165.1836
  98   2.0000      -1.175506       -31.9872
  99   2.0000      -1.173170       -31.9236
 100   2.0000      -1.073274       -29.2053
 101   2.0000      -1.071058       -29.1450
 102   2.0000      -1.068451       -29.0740
 103   2.0000      -1.067720       -29.0541
 104   2.0000      -1.055668       -28.7262
 105   2.0000      -1.053091       -28.6561
 106   2.0000      -1.039524       -28.2869
 107   2.0000      -1.033729       -28.1292
 108   2.0000      -1.031148       -28.0590
 109   2.0000      -1.031074       -28.0570
 110   2.0000      -1.028284       -27.9810
 111   2.0000      -1.022854       -27.8333
 112   2.0000      -0.999218       -27.1901
 113   2.0000      -0.996892       -27.1268
 114   2.0000      -0.990447       -26.9514
 115   2.0000      -0.978922       -26.6378
 116   2.0000      -0.970848       -26.4181
 117   2.0000      -0.969296       -26.3759
 118   2.0000      -0.946328       -25.7509
 119   2.0000      -0.943504       -25.6740
 120   2.0000      -0.931990       -25.3607
 121   2.0000      -0.923509       -25.1299
 122   2.0000      -0.908217       -24.7138
 123   2.0000      -0.900294       -24.4983
 124   2.0000      -0.897590       -24.4247
 125   2.0000      -0.894136       -24.3307
 126   2.0000      -0.892972       -24.2990
 127   2.0000      -0.887504       -24.1502
 128   2.0000      -0.886722       -24.1289
 129   2.0000      -0.884162       -24.0593
 130   2.0000      -0.883273       -24.0351
 131   2.0000      -0.878860       -23.9150
 132   2.0000      -0.858118       -23.3506
 133   2.0000      -0.837067       -22.7778
 134   2.0000      -0.822556       -22.3829
 135   2.0000      -0.808046       -21.9881
 136   2.0000      -0.806986       -21.9592
 137   2.0000      -0.804789       -21.8994
 138   2.0000      -0.803164       -21.8552
 139   2.0000      -0.787664       -21.4334
 140   2.0000      -0.771560       -20.9952
 141   2.0000      -0.753094       -20.4927
 142   2.0000      -0.746117       -20.3029
 143   2.0000      -0.741033       -20.1645
 144   2.0000      -0.738007       -20.0822
 145   2.0000      -0.729401       -19.8480
 146   2.0000      -0.727565       -19.7981
 147   2.0000      -0.722831       -19.6692
 148   2.0000      -0.720411       -19.6034
 149   2.0000      -0.719921       -19.5901
 150   2.0000      -0.711363       -19.3572
 151   2.0000      -0.694370       -18.8948
 152   2.0000      -0.686321       -18.6757
 153   2.0000      -0.682849       -18.5813
 154   2.0000      -0.681369       -18.5410
 155   2.0000      -0.677100       -18.4248
 156   2.0000      -0.671602       -18.2752
 157   2.0000      -0.661944       -18.0124
 158   2.0000      -0.659234       -17.9387
 159   2.0000      -0.653678       -17.7875
 160   2.0000      -0.649791       -17.6817
 161   2.0000      -0.640880       -17.4392
 162   2.0000      -0.632447       -17.2097
 163   2.0000      -0.622845       -16.9485
 164   2.0000      -0.616731       -16.7821
 165   2.0000      -0.611135       -16.6298
 166   2.0000      -0.603972       -16.4349
 167   2.0000      -0.598943       -16.2981
 168   2.0000      -0.597229       -16.2514
 169   2.0000      -0.595512       -16.2047
 170   2.0000      -0.593422       -16.1478
 171   2.0000      -0.589896       -16.0519
 172   2.0000      -0.584505       -15.9052
 173   2.0000      -0.582706       -15.8562
 174   2.0000      -0.581826       -15.8323
 175   2.0000      -0.580502       -15.7963
 176   2.0000      -0.578217       -15.7341
 177   2.0000      -0.575439       -15.6585
 178   2.0000      -0.569342       -15.4926
 179   2.0000      -0.565509       -15.3883
 180   2.0000      -0.565032       -15.3753
 181   2.0000      -0.563845       -15.3430
 182   2.0000      -0.561316       -15.2742
 183   2.0000      -0.555270       -15.1097
 184   2.0000      -0.551738       -15.0136
 185   2.0000      -0.548603       -14.9283
 186   2.0000      -0.546319       -14.8661
 187   2.0000      -0.544551       -14.8180
 188   2.0000      -0.542995       -14.7757
 189   2.0000      -0.541275       -14.7288
 190   2.0000      -0.538624       -14.6567
 191   2.0000      -0.535975       -14.5846
 192   2.0000      -0.531812       -14.4713
 193   2.0000      -0.525263       -14.2931
 194   2.0000      -0.524261       -14.2659
 195   2.0000      -0.520589       -14.1659
 196   2.0000      -0.519322       -14.1315
 197   2.0000      -0.517073       -14.0703
 198   2.0000      -0.515690       -14.0326
 199   2.0000      -0.512431       -13.9440
 200   2.0000      -0.512237       -13.9387
 201   2.0000      -0.509445       -13.8627
 202   2.0000      -0.507355       -13.8058
 203   2.0000      -0.504868       -13.7382
 204   2.0000      -0.502664       -13.6782
 205   2.0000      -0.500057       -13.6072
 206   2.0000      -0.498977       -13.5779
 207   2.0000      -0.496212       -13.5026
 208   2.0000      -0.492830       -13.4106
 209   2.0000      -0.487574       -13.2676
 210   2.0000      -0.484295       -13.1783
 211   2.0000      -0.482771       -13.1369
 212   2.0000      -0.479841       -13.0571
 213   2.0000      -0.478221       -13.0131
 214   2.0000      -0.475485       -12.9386
 215   2.0000      -0.474032       -12.8991
 216   2.0000      -0.472235       -12.8502
 217   2.0000      -0.471959       -12.8427
 218   2.0000      -0.469212       -12.7679
 219   2.0000      -0.468919       -12.7599
 220   2.0000      -0.467521       -12.7219
 221   2.0000      -0.466327       -12.6894
 222   2.0000      -0.463580       -12.6147
 223   2.0000      -0.462758       -12.5923
 224   2.0000      -0.462068       -12.5735
 225   2.0000      -0.461113       -12.5475
 226   2.0000      -0.458461       -12.4754
 227   2.0000      -0.457446       -12.4477
 228   2.0000      -0.451719       -12.2919
 229   2.0000      -0.449611       -12.2345
 230   2.0000      -0.447870       -12.1872
 231   2.0000      -0.444195       -12.0872
 232   2.0000      -0.443846       -12.0777
 233   2.0000      -0.440894       -11.9973
 234   2.0000      -0.440215       -11.9789
 235   2.0000      -0.439252       -11.9527
 236   2.0000      -0.438571       -11.9341
 237   2.0000      -0.437696       -11.9103
 238   2.0000      -0.436069       -11.8660
 239   2.0000      -0.435508       -11.8508
 240   2.0000      -0.433146       -11.7865
 241   2.0000      -0.421078       -11.4581
 242   2.0000      -0.416477       -11.3329
 243   2.0000      -0.414353       -11.2751
 244   2.0000      -0.405877       -11.0445
 245   2.0000      -0.386151       -10.5077
 246   2.0000      -0.379699       -10.3321
 247   2.0000      -0.376618       -10.2483
 248   2.0000      -0.376435       -10.2433
 249   2.0000      -0.374565       -10.1924
 250   2.0000      -0.374284       -10.1848
 251   2.0000      -0.368013       -10.0141
 252   2.0000      -0.367161        -9.9910
 253   2.0000      -0.366299        -9.9675
 254   2.0000      -0.350130        -9.5275
 255   2.0000      -0.342551        -9.3213
 256   2.0000      -0.338520        -9.2116
 257   2.0000      -0.306162        -8.3311
 258   2.0000      -0.268719        -7.3122
 259   0.0000      -0.085329        -2.3219
 260   0.0000      -0.068430        -1.8621
 261   0.0000      -0.046306        -1.2601
 262   0.0000      -0.040688        -1.1072
 263   0.0000      -0.017430        -0.4743

MULLIKEN ATOMIC CHARGES
-----------------------
   0 C :    0.005619
   1 C :    0.029635
   2 C :    0.042153
   3 C :   -0.012721
   4 C :   -0.060641
   5 C :    0.011838
   6 C :    0.228337
   7 C :   -0.145193
   8 C :    0.282314
   9 C :    0.065886
  10 C :   -0.162447
  11 C :    0.018654
  12 C :   -0.038027
  13 C :   -0.044098
  14 S :    0.180125
  15 C :   -0.206696
  16 C :    0.009840
  17 C :   -0.082399
  18 C :   -0.056505
  19 C :   -0.067001
  20 S :    0.168894
  21 C :   -0.070709
  22 S :    0.167331
  23 C :   -0.075944
  24 C :    0.003069
  25 C :   -0.051615
  26 C :   -0.050654
  27 C :   -0.006466
  28 C :   -0.209404
  29 S :    0.180146
  30 C :   -0.148031
  31 C :    0.023016
  32 C :    0.073232
  33 C :   -0.189057
  34 C :    0.234525
  35 C :   -0.002328
  36 C :   -0.051007
  37 C :    0.205772
  38 C :   -0.000232
  39 C :    0.032763
  40 C :    0.040004
  41 C :   -0.008773
  42 Cl:   -0.045821
  43 Cl:   -0.039506
  44 O :   -0.167021
  45 C :   -0.350717
  46 C :   -0.118955
  47 C :   -0.138986
  48 C :    0.038041
  49 C :    0.033024
  50 C :   -0.018165
  51 C :   -0.028015
  52 C :    0.032849
  53 C :    0.033004
  54 C :   -0.022579
  55 C :   -0.020858
  56 O :   -0.189177
  57 Cl:   -0.039215
  58 Cl:   -0.047712
  59 C :   -0.378311
  60 C :   -0.133270
  61 C :   -0.135426
  62 N :    0.111073
  63 N :    0.107202
  64 N :    0.109868
  65 N :    0.140648
  66 H :    0.027410
  67 H :    0.026837
  68 H :    0.029729
  69 H :    0.038551
  70 H :    0.017072
  71 H :    0.016403
  72 H :    0.019764
  73 H :    0.053054
  74 H :    0.029949
  75 H :    0.031014
  76 H :    0.023912
  77 H :    0.027049
  78 H :    0.027638
  79 H :    0.027992
  80 H :    0.038153
  81 H :    0.038277
  82 H :    0.038686
  83 H :    0.035135
  84 H :    0.036681
  85 H :    0.054123
  86 H :    0.027822
  87 H :    0.035378
  88 H :    0.037366
  89 H :    0.026025
  90 H :    0.042141
  91 H :    0.039582
  92 H :    0.038557
  93 H :    0.038854
  94 H :    0.040117
  95 H :    0.041551
Sum of atomic charges:   -0.0000000

LOEWDIN ATOMIC CHARGES
----------------------
   0 C :   -0.010358
   1 C :   -0.131130
   2 C :   -0.135301
   3 C :   -0.000068
   4 C :   -0.047380
   5 C :   -0.017377
   6 C :    0.096272
   7 C :   -0.123746
   8 C :    0.079536
   9 C :    0.055387
  10 C :   -0.187235
  11 C :    0.002973
  12 C :   -0.048288
  13 C :   -0.160192
  14 S :    0.457396
  15 C :   -0.039855
  16 C :   -0.016757
  17 C :   -0.206734
  18 C :   -0.061195
  19 C :   -0.166575
  20 S :    0.445108
  21 C :   -0.170938
  22 S :    0.445482
  23 C :   -0.201450
  24 C :   -0.019326
  25 C :   -0.057324
  26 C :   -0.157685
  27 C :   -0.043448
  28 C :   -0.039430
  29 S :    0.468918
  30 C :   -0.190829
  31 C :    0.000207
  32 C :    0.062199
  33 C :   -0.123542
  34 C :    0.063941
  35 C :   -0.014288
  36 C :   -0.049885
  37 C :    0.091570
  38 C :   -0.013443
  39 C :   -0.130281
  40 C :   -0.135763
  41 C :    0.002252
  42 Cl:    0.153079
  43 Cl:    0.156899
  44 O :   -0.145627
  45 C :   -0.150522
  46 C :   -0.016866
  47 C :   -0.020876
  48 C :   -0.011951
  49 C :   -0.014067
  50 C :   -0.059373
  51 C :   -0.061094
  52 C :   -0.012254
  53 C :   -0.012987
  54 C :   -0.059530
  55 C :   -0.059121
  56 O :   -0.151601
  57 Cl:    0.155997
  58 Cl:    0.152153
  59 C :   -0.149469
  60 C :   -0.014920
  61 C :   -0.019669
  62 N :   -0.053690
  63 N :   -0.054188
  64 N :   -0.051564
  65 N :   -0.049529
  66 H :    0.046923
  67 H :    0.048640
  68 H :    0.044685
  69 H :    0.038031
  70 H :    0.032013
  71 H :    0.032244
  72 H :    0.041236
  73 H :    0.055710
  74 H :    0.046991
  75 H :    0.050343
  76 H :    0.023217
  77 H :    0.025084
  78 H :    0.025461
  79 H :    0.025404
  80 H :    0.026670
  81 H :    0.029532
  82 H :    0.026818
  83 H :    0.025341
  84 H :    0.030074
  85 H :    0.028403
  86 H :    0.024996
  87 H :    0.028502
  88 H :    0.029387
  89 H :    0.024495
  90 H :    0.027924
  91 H :    0.030185
  92 H :    0.026144
  93 H :    0.026606
  94 H :    0.030618
  95 H :    0.027676

  Mayer bond orders larger than 0.100000
B(  0-C ,  1-C ) :   1.3721 B(  0-C ,  5-C ) :   1.3683 B(  0-C , 66-H ) :   0.9834
B(  1-C ,  2-C ) :   1.4102 B(  1-C , 57-Cl) :   1.0794 B(  2-C ,  3-C ) :   1.3523
B(  2-C , 58-Cl) :   1.0499 B(  3-C ,  4-C ) :   1.3726 B(  3-C , 67-H ) :   1.0120
B(  4-C ,  5-C ) :   1.3367 B(  4-C ,  6-C ) :   0.9552 B(  5-C ,  8-C ) :   0.9989
B(  6-C ,  7-C ) :   0.9616 B(  6-C , 56-O ) :   2.1416 B(  7-C ,  8-C ) :   1.1060
B(  7-C ,  9-C ) :   1.5683 B(  8-C , 59-C ) :   1.6315 B(  9-C , 10-C ) :   1.2804
B(  9-C , 68-H ) :   0.9122 B( 10-C , 11-C ) :   1.3615 B( 10-C , 14-S ) :   1.0738
B( 11-C , 12-C ) :   1.3867 B( 11-C , 69-H ) :   0.9819 B( 12-C , 13-C ) :   1.4366
B( 12-C , 15-C ) :   0.9131 B( 13-C , 14-S ) :   1.1456 B( 13-C , 17-C ) :   1.2277
B( 15-C , 16-C ) :   0.9219 B( 15-C , 52-C ) :   1.0374 B( 15-C , 53-C ) :   1.0432
B( 16-C , 17-C ) :   1.5070 B( 16-C , 18-C ) :   1.3505 B( 17-C , 20-S ) :   1.0757
B( 18-C , 19-C ) :   1.4546 B( 18-C , 70-H ) :   0.9958 B( 19-C , 20-S ) :   1.1307
B( 19-C , 21-C ) :   1.1893 B( 21-C , 22-S ) :   1.1274 B( 21-C , 25-C ) :   1.4562
B( 22-S , 23-C ) :   1.0795 B( 23-C , 24-C ) :   1.5066 B( 23-C , 26-C ) :   1.2352
B( 24-C , 25-C ) :   1.3503 B( 24-C , 28-C ) :   0.9233 B( 25-C , 71-H ) :   0.9960
B( 26-C , 27-C ) :   1.4660 B( 26-C , 29-S ) :   1.1259 B( 27-C , 28-C ) :   0.9125
B( 27-C , 31-C ) :   1.3740 B( 28-C , 48-C ) :   1.0376 B( 28-C , 49-C ) :   1.0402
B( 29-S , 30-C ) :   1.0870 B( 30-C , 31-C ) :   1.3744 B( 30-C , 32-C ) :   1.1892
B( 31-C , 72-H ) :   1.0081 B( 32-C , 33-C ) :   1.6142 B( 32-C , 73-H ) :   0.9495
B( 33-C , 34-C ) :   1.0698 B( 33-C , 37-C ) :   0.9587 B( 34-C , 35-C ) :   1.0170
B( 34-C , 45-C ) :   1.6529 B( 35-C , 36-C ) :   1.3326 B( 35-C , 38-C ) :   1.3721
B( 36-C , 37-C ) :   0.9204 B( 36-C , 41-C ) :   1.3792 B( 37-C , 44-O ) :   2.2496
B( 38-C , 39-C ) :   1.3698 B( 38-C , 74-H ) :   0.9883 B( 39-C , 40-C ) :   1.4100
B( 39-C , 43-Cl) :   1.0734 B( 40-C , 41-C ) :   1.3551 B( 40-C , 42-Cl) :   1.0524
B( 41-C , 75-H ) :   1.0111 B( 45-C , 46-C ) :   1.1205 B( 45-C , 47-C ) :   1.1419
B( 46-C , 64-N ) :   2.9870 B( 47-C , 65-N ) :   3.0073 B( 48-C , 51-C ) :   1.0812
B( 48-C , 76-H ) :   0.9481 B( 48-C , 77-H ) :   0.9473 B( 49-C , 50-C ) :   1.0842
B( 49-C , 78-H ) :   0.9482 B( 49-C , 79-H ) :   0.9487 B( 50-C , 80-H ) :   0.9686
B( 50-C , 81-H ) :   0.9705 B( 50-C , 82-H ) :   0.9682 B( 51-C , 83-H ) :   0.9675
B( 51-C , 84-H ) :   0.9679 B( 51-C , 85-H ) :   0.9601 B( 52-C , 55-C ) :   1.0848
B( 52-C , 86-H ) :   0.9490 B( 52-C , 87-H ) :   0.9485 B( 53-C , 54-C ) :   1.0830
B( 53-C , 88-H ) :   0.9478 B( 53-C , 89-H ) :   0.9482 B( 54-C , 90-H ) :   0.9688
B( 54-C , 91-H ) :   0.9704 B( 54-C , 92-H ) :   0.9681 B( 55-C , 93-H ) :   0.9684
B( 55-C , 94-H ) :   0.9700 B( 55-C , 95-H ) :   0.9685 B( 59-C , 60-C ) :   1.1323
B( 59-C , 61-C ) :   1.1301 B( 60-C , 63-N ) :   2.9682 B( 61-C , 62-N ) :   2.9717

-----------------------------------------------------------------------------
         ABSORPTION SPECTRUM VIA TRANSITION ELECTRIC DIPOLE MOMENTS
-----------------------------------------------------------------------------
State   Energy  Wavelength   fosc         T2         TX        TY        TZ
        (cm-1)    (nm)                  (au**2)     (au)      (au)      (au)
-----------------------------------------------------------------------------
   0   16734.7    597.6   2.880727035  56.67098  -5.54097  -5.08579   0.32161
   1   24205.2    413.1   0.438142868   5.95912   0.53240   2.36810   0.26034
   2   28738.0    348.0   0.039651987   0.45424  -0.11111   0.61084  -0.26223
   3   29212.4    342.3   0.033992186   0.38308   0.00454   0.61874   0.01462
   4   31290.3    319.6   0.012620699   0.13278  -0.14719  -0.15320  -0.29606
   5   33140.2    301.7   0.271846049   2.70049  -0.00375   1.58913   0.41852
   6   34981.5    285.9   0.034882602   0.32828  -0.46738  -0.22991   0.23870
   7   35951.4    278.2   0.746928663   6.83973   1.66187  -0.59065   1.93108
   8   36864.9    271.3   0.211670626   1.89027   0.40661  -0.82717   1.02016
   9   38752.3    258.0   0.101258775   0.86022  -0.27132  -0.55528   0.69157
  10   39618.9    252.4   0.886845129   7.36922  -1.96803   1.37120  -1.27117
  11   39714.7    251.8   1.005053177   8.33131  -1.06503  -2.24785  -1.46431

Dispersion correction           -0.064675993
FINAL SINGLE POINT ENERGY     -5799.048293352847

DIPOLE MOMENT
-------------
                                X             Y             Z
Electronic contribution:     21.92210     -36.43280      26.33517
Nuclear contribution   :    -21.04357      38.04393     -24.66540
                        -----------------------------------------
Total Dipole Moment    :      0.87853       1.61113       1.66976
                        -----------------------------------------
Magnitude (a.u.)       :      2.48106
Magnitude (Debye)      :      6.30635

Rotational constants in cm-1:     0.002241     0.000212     0.000199
Rotational constants in MHz :    67.189325     6.362861     5.979574

                             ****ORCA TERMINATED NORMALLY****
TOTAL RUN TIME: 0 days 0 hours 14 minutes 15 seconds 81 msec
