                         Program Version 4.2.0 -  RELEASE  -
|  1> # ORCA input file
|  2> # SCF done       -175.814611683389          0.000569084702
|  3> ! wb97x-d3 def2-SVP def2/J RIJCOSX Grid4 TightSCF
|  4> %maxcore 5000
|  5> %tddft
|  6>     Mode sTDA
|  7>     Ethresh 5.0
|  8>     maxcore 5000
|  9> end
| 10>
| 11> %pal
| 12>   nprocs 6
| 13>   end
| 14> * xyz 0 1
| 15>    C        0.72869         0.08517         1.21104
| 16>    C        1.36907         0.64738         0.09707
| 17>    S        0.24341         0.96239        -1.18166
| 18>    C       -1.09081         0.32871        -0.24019
| 19>    C       -0.63420        -0.08463         1.00448
| 20>    C       -2.35126         0.33086        -0.85551
| 21>    C       -3.58196        -0.11442        -0.43515
| 22>    C       -4.78236        -0.02566        -1.24999
| 23>    C       -4.91092         0.50645        -2.50697
| 24>    C       -6.12543         0.54828        -3.22629
| 25>    N       -7.07358         0.61609        -3.86967
| 26>    C       -3.89192         1.09113        -3.29004
| 27>    N       -3.14238         1.58387        -4.00789
| 28>    C       -5.88336        -0.61698        -0.48816
| 29>    C       -7.22421        -0.79557        -0.79322
| 30>    C       -8.03349        -1.40266         0.15550
| 31>    F       -9.32980        -1.58450        -0.12154
| 32>    C       -7.53156        -1.82706         1.38590
| 33>    F       -8.34988        -2.40847         2.27204
| 34>    C       -6.19347        -1.65250         1.69783
| 35>    C       -5.38933        -1.04868         0.75167
| 36>    C       -3.94191        -0.75554         0.84431
| 37>    O       -3.24197        -1.01441         1.80229
| 38>    C        9.91574         3.79221        -4.52241
| 39>    C        8.55614         3.85434        -4.19778
| 40>    S        7.69939         4.88686        -5.29596
| 41>    C        9.15438         5.22754        -6.20809
| 42>    C       10.22804         4.55441        -5.64264
| 43>    C        9.04006         6.11951        -7.28606
| 44>    C        9.94293         6.49659        -8.24969
| 45>    C        9.65917         7.50428        -9.25657
| 46>    C        8.64904         8.42997        -9.23962
| 47>    C        8.45297         9.39984       -10.24616
| 48>    N        8.23853        10.20892       -11.03131
| 49>    C        7.69774         8.59518        -8.20929
| 50>    N        6.90616         8.81867        -7.40786
| 51>    C       10.71314         7.43448       -10.26753
| 52>    C       10.88434         8.10853       -11.46672
| 53>    C       12.01543         7.82345       -12.21715
| 54>    F       12.19716         8.45816       -13.38069
| 55>    C       12.96347         6.89270       -11.79097
| 56>    F       14.04194         6.65120       -12.54670
| 57>    C       12.79784         6.21450       -10.59446
| 58>    C       11.66913         6.49561        -9.85034
| 59>    C       11.25917         5.90129        -8.55708
| 60>    O       11.89966         5.08304        -7.93078
| 61>    C        1.42660        -0.27523         2.48796
| 62>    C        0.48136        -0.67734         3.61443
| 63>    C        2.73695         0.96654        -0.11308
| 64>    S        3.17658         1.86160        -1.55381
| 65>    C        4.83775         1.79834        -1.11847
| 66>    C        5.04748         1.12250         0.08027
| 67>    C        3.86158         0.66126         0.63924
| 68>    C        5.97225         2.30035        -1.79753
| 69>    C        7.22247         2.07286        -1.22932
| 70>   Ge        6.98077         1.09660         0.47048
| 71>    S        6.07441         3.16245        -3.28136
| 72>    C        7.82100         3.21220        -3.16296
| 73>    C        8.25485         2.58488        -2.00607
| 74>    C       10.95211         2.95959        -3.83284
| 75>    C       10.74486         1.46972        -4.11065
| 76>    C        7.44870         2.22687         2.06149
| 77>    C        7.73170        -0.76767         0.45809
| 78>    C        6.96949         1.63490         3.37764
| 79>    C        6.86508        -1.75098         1.23106
| 80>    H       -1.30585        -0.49915         1.73152
| 81>    H       -2.32695         0.75922        -1.85021
| 82>    H       -7.66482        -0.48772        -1.72674
| 83>    H       -5.79800        -1.97834         2.64662
| 84>    H       11.21909         4.61916        -6.05250
| 85>    H        8.05498         6.56532        -7.36469
| 86>    H       10.18108         8.83344       -11.84215
| 87>    H       13.52663         5.49290       -10.26131
| 88>    H        2.11326        -1.10478         2.29065
| 89>    H        2.02403         0.58248         2.81132
| 90>    H       -0.07577        -1.57338         3.35500
| 91>    H        1.05518        -0.88224         4.51542
| 92>    H       -0.22304         0.12147         3.83120
| 93>    H        3.83103         0.10052         1.55368
| 94>    H        9.28648         2.51591        -1.71742
| 95>    H       11.93189         3.25752        -4.20876
| 96>    H       10.94043         3.14892        -2.75830
| 97>    H       10.81066         1.27935        -5.17897
| 98>    H       11.51049         0.88442        -3.60765
| 99>    H        9.76914         1.13980        -3.76216
|100>    H        8.53022         2.36048         2.08086
|101>    H        7.00088         3.20870         1.90665
|102>    H        7.81923        -1.08739        -0.57987
|103>    H        8.73662        -0.73809         0.87769
|104>    H        7.44517         0.67483         3.56574
|105>    H        7.21189         2.30089         4.20364
|106>    H        5.89160         1.48817         3.36170
|107>    H        5.86940        -1.80408         0.79585
|108>    H        7.30484        -2.74627         1.20293
|109>    H        6.76748        -1.45101         2.27193
|110> *
|111>
|112>                          ****END OF INPUT****

CARTESIAN COORDINATES (ANGSTROEM)
---------------------------------
  C      0.728690    0.085170    1.211040
  C      1.369070    0.647380    0.097070
  S      0.243410    0.962390   -1.181660
  C     -1.090810    0.328710   -0.240190
  C     -0.634200   -0.084630    1.004480
  C     -2.351260    0.330860   -0.855510
  C     -3.581960   -0.114420   -0.435150
  C     -4.782360   -0.025660   -1.249990
  C     -4.910920    0.506450   -2.506970
  C     -6.125430    0.548280   -3.226290
  N     -7.073580    0.616090   -3.869670
  C     -3.891920    1.091130   -3.290040
  N     -3.142380    1.583870   -4.007890
  C     -5.883360   -0.616980   -0.488160
  C     -7.224210   -0.795570   -0.793220
  C     -8.033490   -1.402660    0.155500
  F     -9.329800   -1.584500   -0.121540
  C     -7.531560   -1.827060    1.385900
  F     -8.349880   -2.408470    2.272040
  C     -6.193470   -1.652500    1.697830
  C     -5.389330   -1.048680    0.751670
  C     -3.941910   -0.755540    0.844310
  O     -3.241970   -1.014410    1.802290
  C      9.915740    3.792210   -4.522410
  C      8.556140    3.854340   -4.197780
  S      7.699390    4.886860   -5.295960
  C      9.154380    5.227540   -6.208090
  C     10.228040    4.554410   -5.642640
  C      9.040060    6.119510   -7.286060
  C      9.942930    6.496590   -8.249690
  C      9.659170    7.504280   -9.256570
  C      8.649040    8.429970   -9.239620
  C      8.452970    9.399840  -10.246160
  N      8.238530   10.208920  -11.031310
  C      7.697740    8.595180   -8.209290
  N      6.906160    8.818670   -7.407860
  C     10.713140    7.434480  -10.267530
  C     10.884340    8.108530  -11.466720
  C     12.015430    7.823450  -12.217150
  F     12.197160    8.458160  -13.380690
  C     12.963470    6.892700  -11.790970
  F     14.041940    6.651200  -12.546700
  C     12.797840    6.214500  -10.594460
  C     11.669130    6.495610   -9.850340
  C     11.259170    5.901290   -8.557080
  O     11.899660    5.083040   -7.930780
  C      1.426600   -0.275230    2.487960
  C      0.481360   -0.677340    3.614430
  C      2.736950    0.966540   -0.113080
  S      3.176580    1.861600   -1.553810
  C      4.837750    1.798340   -1.118470
  C      5.047480    1.122500    0.080270
  C      3.861580    0.661260    0.639240
  C      5.972250    2.300350   -1.797530
  C      7.222470    2.072860   -1.229320
  Ge     6.980770    1.096600    0.470480
  S      6.074410    3.162450   -3.281360
  C      7.821000    3.212200   -3.162960
  C      8.254850    2.584880   -2.006070
  C     10.952110    2.959590   -3.832840
  C     10.744860    1.469720   -4.110650
  C      7.448700    2.226870    2.061490
  C      7.731700   -0.767670    0.458090
  C      6.969490    1.634900    3.377640
  C      6.865080   -1.750980    1.231060
  H     -1.305850   -0.499150    1.731520
  H     -2.326950    0.759220   -1.850210
  H     -7.664820   -0.487720   -1.726740
  H     -5.798000   -1.978340    2.646620
  H     11.219090    4.619160   -6.052500
  H      8.054980    6.565320   -7.364690
  H     10.181080    8.833440  -11.842150
  H     13.526630    5.492900  -10.261310
  H      2.113260   -1.104780    2.290650
  H      2.024030    0.582480    2.811320
  H     -0.075770   -1.573380    3.355000
  H      1.055180   -0.882240    4.515420
  H     -0.223040    0.121470    3.831200
  H      3.831030    0.100520    1.553680
  H      9.286480    2.515910   -1.717420
  H     11.931890    3.257520   -4.208760
  H     10.940430    3.148920   -2.758300
  H     10.810660    1.279350   -5.178970
  H     11.510490    0.884420   -3.607650
  H      9.769140    1.139800   -3.762160
  H      8.530220    2.360480    2.080860
  H      7.000880    3.208700    1.906650
  H      7.819230   -1.087390   -0.579870
  H      8.736620   -0.738090    0.877690
  H      7.445170    0.674830    3.565740
  H      7.211890    2.300890    4.203640
  H      5.891600    1.488170    3.361700
  H      5.869400   -1.804080    0.795850
  H      7.304840   -2.746270    1.202930
  H      6.767480   -1.451010    2.271930

 Total Charge           Charge          ....    0
 Multiplicity           Mult            ....    1
 Number of Electrons    NEL             ....  506
 Basis Dimension        Dim             .... 1094

ORBITAL ENERGIES
----------------

  NO   OCC          E(Eh)            E(eV)
   0   2.0000    -398.790315    -10851.6362
   1   2.0000     -88.999347     -2421.7953
   2   2.0000     -88.999178     -2421.7908
   3   2.0000     -88.994886     -2421.6740
   4   2.0000     -88.994659     -2421.6678
   5   2.0000     -49.887275     -1357.5018
   6   2.0000     -44.410290     -1208.4654
   7   2.0000     -44.409701     -1208.4494
   8   2.0000     -44.409118     -1208.4335
   9   2.0000     -24.833736      -675.7603
  10   2.0000     -24.833464      -675.7529
  11   2.0000     -24.832088      -675.7155
  12   2.0000     -24.831363      -675.6957
  13   2.0000     -19.259695      -524.0830
  14   2.0000     -19.259366      -524.0740
  15   2.0000     -14.452460      -393.2714
  16   2.0000     -14.451248      -393.2385
  17   2.0000     -14.449675      -393.1956
  18   2.0000     -14.448868      -393.1737
  19   2.0000     -10.419622      -283.5323
  20   2.0000     -10.419111      -283.5184
  21   2.0000     -10.419094      -283.5180
  22   2.0000     -10.418423      -283.4997
  23   2.0000     -10.409660      -283.2612
  24   2.0000     -10.408967      -283.2424
  25   2.0000     -10.381510      -282.4952
  26   2.0000     -10.381126      -282.4848
  27   2.0000     -10.378308      -282.4081
  28   2.0000     -10.377664      -282.3906
  29   2.0000     -10.367045      -282.1016
  30   2.0000     -10.367014      -282.1008
  31   2.0000     -10.362751      -281.9848
  32   2.0000     -10.361618      -281.9540
  33   2.0000     -10.358378      -281.8658
  34   2.0000     -10.358316      -281.8641
  35   2.0000     -10.357797      -281.8500
  36   2.0000     -10.356551      -281.8161
  37   2.0000     -10.353364      -281.7294
  38   2.0000     -10.352092      -281.6947
  39   2.0000     -10.350856      -281.6611
  40   2.0000     -10.350751      -281.6583
  41   2.0000     -10.350337      -281.6470
  42   2.0000     -10.350300      -281.6460
  43   2.0000     -10.350171      -281.6425
  44   2.0000     -10.350062      -281.6395
  45   2.0000     -10.342340      -281.4294
  46   2.0000     -10.341960      -281.4190
  47   2.0000     -10.341927      -281.4181
  48   2.0000     -10.341228      -281.3991
  49   2.0000     -10.336266      -281.2641
  50   2.0000     -10.335336      -281.2388
  51   2.0000     -10.334534      -281.2170
  52   2.0000     -10.333957      -281.2013
  53   2.0000     -10.329007      -281.0666
  54   2.0000     -10.328339      -281.0484
  55   2.0000     -10.327986      -281.0388
  56   2.0000     -10.326873      -281.0085
  57   2.0000     -10.321501      -280.8623
  58   2.0000     -10.320507      -280.8353
  59   2.0000     -10.317866      -280.7634
  60   2.0000     -10.315725      -280.7052
  61   2.0000     -10.313216      -280.6369
  62   2.0000     -10.313039      -280.6321
  63   2.0000     -10.311897      -280.6010
  64   2.0000     -10.310985      -280.5762
  65   2.0000     -10.305589      -280.4293
  66   2.0000     -10.304858      -280.4094
  67   2.0000     -10.297840      -280.2185
  68   2.0000     -10.297755      -280.2162
  69   2.0000      -8.113397      -220.7768
  70   2.0000      -8.113239      -220.7725
  71   2.0000      -8.109230      -220.6634
  72   2.0000      -8.108992      -220.6569
  73   2.0000      -6.341524      -172.5616
  74   2.0000      -6.072817      -165.2498
  75   2.0000      -6.072647      -165.2451
  76   2.0000      -6.068735      -165.1387
  77   2.0000      -6.068589      -165.1347
  78   2.0000      -6.068571      -165.1342
  79   2.0000      -6.068383      -165.1291
  80   2.0000      -6.065683      -165.0556
  81   2.0000      -6.065575      -165.0527
  82   2.0000      -6.064534      -165.0244
  83   2.0000      -6.064291      -165.0177
  84   2.0000      -6.061586      -164.9441
  85   2.0000      -6.061302      -164.9364
  86   2.0000      -4.513516      -122.8190
  87   2.0000      -4.512109      -122.7807
  88   2.0000      -4.510576      -122.7390
  89   2.0000      -1.363303       -37.0973
  90   2.0000      -1.362760       -37.0826
  91   2.0000      -1.348243       -36.6876
  92   2.0000      -1.347663       -36.6718
  93   2.0000      -1.333942       -36.2984
  94   2.0000      -1.331789       -36.2398
  95   2.0000      -1.330644       -36.2087
  96   2.0000      -1.330172       -36.1958
  97   2.0000      -1.329827       -36.1864
  98   2.0000      -1.177023       -32.0284
  99   2.0000      -1.176533       -32.0151
 100   2.0000      -1.060889       -28.8683
 101   2.0000      -1.060645       -28.8616
 102   2.0000      -1.055868       -28.7316
 103   2.0000      -1.047558       -28.5055
 104   2.0000      -1.041838       -28.3499
 105   2.0000      -1.041545       -28.3419
 106   2.0000      -1.034632       -28.1538
 107   2.0000      -1.031583       -28.0708
 108   2.0000      -1.031381       -28.0653
 109   2.0000      -1.017558       -27.6892
 110   2.0000      -0.996991       -27.1295
 111   2.0000      -0.996220       -27.1085
 112   2.0000      -0.954042       -25.9608
 113   2.0000      -0.949091       -25.8261
 114   2.0000      -0.939975       -25.5780
 115   2.0000      -0.938130       -25.5278
 116   2.0000      -0.932418       -25.3724
 117   2.0000      -0.921294       -25.0697
 118   2.0000      -0.914261       -24.8783
 119   2.0000      -0.912730       -24.8366
 120   2.0000      -0.911509       -24.8034
 121   2.0000      -0.900048       -24.4915
 122   2.0000      -0.889635       -24.2082
 123   2.0000      -0.886330       -24.1183
 124   2.0000      -0.885546       -24.0969
 125   2.0000      -0.873359       -23.7653
 126   2.0000      -0.865730       -23.5577
 127   2.0000      -0.859705       -23.3938
 128   2.0000      -0.858185       -23.3524
 129   2.0000      -0.838328       -22.8121
 130   2.0000      -0.823462       -22.4075
 131   2.0000      -0.812231       -22.1019
 132   2.0000      -0.811809       -22.0904
 133   2.0000      -0.799780       -21.7631
 134   2.0000      -0.775475       -21.1018
 135   2.0000      -0.771397       -20.9908
 136   2.0000      -0.765228       -20.8229
 137   2.0000      -0.756571       -20.5873
 138   2.0000      -0.749159       -20.3856
 139   2.0000      -0.744244       -20.2519
 140   2.0000      -0.743176       -20.2228
 141   2.0000      -0.736650       -20.0453
 142   2.0000      -0.734480       -19.9862
 143   2.0000      -0.727096       -19.7853
 144   2.0000      -0.720209       -19.5979
 145   2.0000      -0.714955       -19.4549
 146   2.0000      -0.702222       -19.1084
 147   2.0000      -0.699100       -19.0235
 148   2.0000      -0.697885       -18.9904
 149   2.0000      -0.684974       -18.6391
 150   2.0000      -0.679819       -18.4988
 151   2.0000      -0.678740       -18.4695
 152   2.0000      -0.678330       -18.4583
 153   2.0000      -0.669544       -18.2192
 154   2.0000      -0.662559       -18.0292
 155   2.0000      -0.657100       -17.8806
 156   2.0000      -0.651568       -17.7301
 157   2.0000      -0.643452       -17.5092
 158   2.0000      -0.642036       -17.4707
 159   2.0000      -0.632181       -17.2025
 160   2.0000      -0.628333       -17.0978
 161   2.0000      -0.623720       -16.9723
 162   2.0000      -0.623465       -16.9654
 163   2.0000      -0.623304       -16.9610
 164   2.0000      -0.618522       -16.8309
 165   2.0000      -0.610242       -16.6055
 166   2.0000      -0.605351       -16.4724
 167   2.0000      -0.586570       -15.9614
 168   2.0000      -0.586330       -15.9548
 169   2.0000      -0.585380       -15.9290
 170   2.0000      -0.585077       -15.9208
 171   2.0000      -0.582558       -15.8522
 172   2.0000      -0.582214       -15.8428
 173   2.0000      -0.580958       -15.8087
 174   2.0000      -0.576594       -15.6899
 175   2.0000      -0.575701       -15.6656
 176   2.0000      -0.575385       -15.6570
 177   2.0000      -0.572497       -15.5784
 178   2.0000      -0.570458       -15.5229
 179   2.0000      -0.569765       -15.5041
 180   2.0000      -0.569115       -15.4864
 181   2.0000      -0.567768       -15.4498
 182   2.0000      -0.564285       -15.3550
 183   2.0000      -0.562499       -15.3064
 184   2.0000      -0.554150       -15.0792
 185   2.0000      -0.545946       -14.8560
 186   2.0000      -0.545336       -14.8393
 187   2.0000      -0.540574       -14.7098
 188   2.0000      -0.537605       -14.6290
 189   2.0000      -0.536864       -14.6088
 190   2.0000      -0.535180       -14.5630
 191   2.0000      -0.533985       -14.5305
 192   2.0000      -0.532628       -14.4935
 193   2.0000      -0.531102       -14.4520
 194   2.0000      -0.529459       -14.4073
 195   2.0000      -0.528786       -14.3890
 196   2.0000      -0.524374       -14.2689
 197   2.0000      -0.520147       -14.1539
 198   2.0000      -0.518626       -14.1125
 199   2.0000      -0.517740       -14.0884
 200   2.0000      -0.516734       -14.0610
 201   2.0000      -0.511784       -13.9263
 202   2.0000      -0.503610       -13.7039
 203   2.0000      -0.500662       -13.6237
 204   2.0000      -0.494450       -13.4547
 205   2.0000      -0.492730       -13.4079
 206   2.0000      -0.490754       -13.3541
 207   2.0000      -0.490008       -13.3338
 208   2.0000      -0.489558       -13.3216
 209   2.0000      -0.489232       -13.3127
 210   2.0000      -0.487102       -13.2547
 211   2.0000      -0.485301       -13.2057
 212   2.0000      -0.483774       -13.1642
 213   2.0000      -0.483553       -13.1582
 214   2.0000      -0.479347       -13.0437
 215   2.0000      -0.478920       -13.0321
 216   2.0000      -0.477224       -12.9859
 217   2.0000      -0.476342       -12.9619
 218   2.0000      -0.473121       -12.8743
 219   2.0000      -0.472389       -12.8544
 220   2.0000      -0.471452       -12.8288
 221   2.0000      -0.465199       -12.6587
 222   2.0000      -0.462545       -12.5865
 223   2.0000      -0.461902       -12.5690
 224   2.0000      -0.460889       -12.5414
 225   2.0000      -0.459661       -12.5080
 226   2.0000      -0.457769       -12.4565
 227   2.0000      -0.456401       -12.4193
 228   2.0000      -0.455820       -12.4035
 229   2.0000      -0.450579       -12.2609
 230   2.0000      -0.447845       -12.1865
 231   2.0000      -0.445629       -12.1262
 232   2.0000      -0.441963       -12.0264
 233   2.0000      -0.440630       -11.9902
 234   2.0000      -0.430587       -11.7169
 235   2.0000      -0.410278       -11.1642
 236   2.0000      -0.409801       -11.1512
 237   2.0000      -0.403130       -10.9697
 238   2.0000      -0.400893       -10.9089
 239   2.0000      -0.389448       -10.5974
 240   2.0000      -0.383123       -10.4253
 241   2.0000      -0.379108       -10.3161
 242   2.0000      -0.376752       -10.2519
 243   2.0000      -0.376554       -10.2466
 244   2.0000      -0.372429       -10.1343
 245   2.0000      -0.367043        -9.9878
 246   2.0000      -0.362499        -9.8641
 247   2.0000      -0.360376        -9.8063
 248   2.0000      -0.353482        -9.6187
 249   2.0000      -0.346587        -9.4311
 250   2.0000      -0.337838        -9.1930
 251   2.0000      -0.307862        -8.3773
 252   2.0000      -0.271278        -7.3819
 253   0.0000      -0.080973        -2.2034
 254   0.0000      -0.067308        -1.8316
 255   0.0000      -0.044288        -1.2051
 256   0.0000      -0.039530        -1.0757
 257   0.0000      -0.017188        -0.4677

MULLIKEN ATOMIC CHARGES
-----------------------
   0 C :   -0.083370
   1 C :   -0.063204
   2 S :    0.146591
   3 C :   -0.123923
   4 C :   -0.018974
   5 C :    0.090643
   6 C :   -0.140832
   7 C :    0.289039
   8 C :   -0.386916
   9 C :   -0.131186
  10 N :    0.106395
  11 C :   -0.121765
  12 N :    0.105962
  13 C :    0.026457
  14 C :   -0.084859
  15 C :    0.243343
  16 F :   -0.179878
  17 C :    0.242538
  18 F :   -0.184309
  19 C :   -0.095014
  20 C :   -0.054297
  21 C :    0.226901
  22 O :   -0.185347
  23 C :   -0.082324
  24 C :   -0.069047
  25 S :    0.150757
  26 C :   -0.137575
  27 C :    0.005759
  28 C :    0.084048
  29 C :   -0.136443
  30 C :    0.264063
  31 C :   -0.369207
  32 C :   -0.130363
  33 N :    0.109464
  34 C :   -0.141795
  35 N :    0.116167
  36 C :    0.028162
  37 C :   -0.085748
  38 C :    0.244880
  39 F :   -0.179543
  40 C :    0.242101
  41 F :   -0.183592
  42 C :   -0.097907
  43 C :   -0.053809
  44 C :    0.223544
  45 O :   -0.185324
  46 C :   -0.014362
  47 C :   -0.014486
  48 C :   -0.090930
  49 S :    0.166545
  50 C :   -0.081060
  51 C :   -0.158814
  52 C :   -0.037783
  53 C :   -0.089837
  54 C :   -0.148765
  55 Ge:    0.603994
  56 S :    0.166123
  57 C :   -0.081832
  58 C :   -0.026924
  59 C :    0.020827
  60 C :   -0.036067
  61 C :   -0.262722
  62 C :   -0.266052
  63 C :   -0.054069
  64 C :   -0.051898
  65 H :    0.031007
  66 H :    0.018697
  67 H :    0.045220
  68 H :    0.038700
  69 H :    0.035432
  70 H :    0.038094
  71 H :    0.046228
  72 H :    0.041749
  73 H :    0.055818
  74 H :    0.047390
  75 H :    0.049084
  76 H :    0.035838
  77 H :    0.044697
  78 H :    0.000595
  79 H :   -0.000740
  80 H :    0.033521
  81 H :    0.041626
  82 H :    0.040898
  83 H :    0.038963
  84 H :    0.040753
  85 H :    0.058056
  86 H :    0.070844
  87 H :    0.067764
  88 H :    0.056059
  89 H :    0.039826
  90 H :    0.043951
  91 H :    0.039189
  92 H :    0.043678
  93 H :    0.042703
  94 H :    0.032207
Sum of atomic charges:   -0.0000000

LOEWDIN ATOMIC CHARGES
----------------------
   0 C :   -0.063330
   1 C :   -0.155941
   2 S :    0.445861
   3 C :   -0.192258
   4 C :   -0.002230
   5 C :    0.061220
   6 C :   -0.119245
   7 C :    0.080240
   8 C :   -0.147417
   9 C :   -0.013587
  10 N :   -0.053816
  11 C :   -0.019181
  12 N :   -0.050092
  13 C :   -0.019696
  14 C :   -0.017619
  15 C :    0.077516
  16 F :   -0.047658
  17 C :    0.074505
  18 F :   -0.050104
  19 C :   -0.007372
  20 C :   -0.050039
  21 C :    0.097344
  22 O :   -0.148565
  23 C :   -0.061266
  24 C :   -0.157820
  25 S :    0.446161
  26 C :   -0.192998
  27 C :    0.001137
  28 C :    0.061167
  29 C :   -0.115639
  30 C :    0.078613
  31 C :   -0.145662
  32 C :   -0.014373
  33 N :   -0.051943
  34 C :   -0.021081
  35 N :   -0.048965
  36 C :   -0.019526
  37 C :   -0.017849
  38 C :    0.077815
  39 F :   -0.047281
  40 C :    0.074479
  41 F :   -0.049735
  42 C :   -0.007609
  43 C :   -0.049796
  44 C :    0.096495
  45 O :   -0.146626
  46 C :   -0.038996
  47 C :   -0.054142
  48 C :   -0.192659
  49 S :    0.440084
  50 C :   -0.182243
  51 C :   -0.170998
  52 C :   -0.044929
  53 C :   -0.186973
  54 C :   -0.169744
  55 Ge:    0.523334
  56 S :    0.440584
  57 C :   -0.192806
  58 C :   -0.043867
  59 C :   -0.032538
  60 C :   -0.053753
  61 C :   -0.168343
  62 C :   -0.170224
  63 C :   -0.063107
  64 C :   -0.061766
  65 H :    0.033267
  66 H :    0.044515
  67 H :    0.053921
  68 H :    0.054466
  69 H :    0.036068
  70 H :    0.046493
  71 H :    0.054137
  72 H :    0.055047
  73 H :    0.035975
  74 H :    0.035459
  75 H :    0.031220
  76 H :    0.030674
  77 H :    0.031045
  78 H :    0.030604
  79 H :    0.032164
  80 H :    0.036952
  81 H :    0.028090
  82 H :    0.031252
  83 H :    0.027671
  84 H :    0.024788
  85 H :    0.033280
  86 H :    0.039838
  87 H :    0.038711
  88 H :    0.032273
  89 H :    0.024238
  90 H :    0.029918
  91 H :    0.025218
  92 H :    0.027554
  93 H :    0.029371
  94 H :    0.022647

  Mayer bond orders larger than 0.100000
B(  0-C ,  1-C ) :   1.4716 B(  0-C ,  4-C ) :   1.3531 B(  0-C , 46-C ) :   1.0301
B(  1-C ,  2-S ) :   1.1789 B(  1-C , 48-C ) :   1.1483 B(  2-S ,  3-C ) :   1.0951
B(  3-C ,  4-C ) :   1.3821 B(  3-C ,  5-C ) :   1.2618 B(  4-C , 65-H ) :   0.9712
B(  5-C ,  6-C ) :   1.5849 B(  5-C , 66-H ) :   0.9078 B(  6-C ,  7-C ) :   1.1043
B(  6-C , 21-C ) :   0.9541 B(  7-C ,  8-C ) :   1.6310 B(  7-C , 13-C ) :   1.0100
B(  8-C ,  9-C ) :   1.1340 B(  8-C , 11-C ) :   1.1284 B(  9-C , 10-N ) :   2.9696
B( 11-C , 12-N ) :   2.9520 B( 13-C , 14-C ) :   1.3314 B( 13-C , 20-C ) :   1.3474
B( 14-C , 15-C ) :   1.3534 B( 14-C , 67-H ) :   0.9874 B( 15-C , 16-F ) :   1.1144
B( 15-C , 17-C ) :   1.2927 B( 17-C , 18-F ) :   1.1001 B( 17-C , 19-C ) :   1.3303
B( 19-C , 20-C ) :   1.3414 B( 19-C , 68-H ) :   1.0151 B( 20-C , 21-C ) :   0.9672
B( 21-C , 22-O ) :   2.1420 B( 23-C , 24-C ) :   1.4626 B( 23-C , 27-C ) :   1.3383
B( 23-C , 59-C ) :   1.0458 B( 24-C , 25-S ) :   1.1811 B( 24-C , 57-C ) :   1.1293
B( 25-S , 26-C ) :   1.0929 B( 26-C , 27-C ) :   1.4099 B( 26-C , 28-C ) :   1.2416
B( 27-C , 69-H ) :   0.9778 B( 28-C , 29-C ) :   1.5975 B( 28-C , 70-H ) :   0.9207
B( 29-C , 30-C ) :   1.0938 B( 29-C , 44-C ) :   0.9571 B( 30-C , 31-C ) :   1.6462
B( 30-C , 36-C ) :   1.0152 B( 31-C , 32-C ) :   1.1281 B( 31-C , 34-C ) :   1.1270
B( 32-C , 33-N ) :   2.9774 B( 34-C , 35-N ) :   2.9860 B( 36-C , 37-C ) :   1.3327
B( 36-C , 43-C ) :   1.3455 B( 37-C , 38-C ) :   1.3505 B( 37-C , 71-H ) :   0.9897
B( 38-C , 39-F ) :   1.1141 B( 38-C , 40-C ) :   1.2924 B( 40-C , 41-F ) :   1.1010
B( 40-C , 42-C ) :   1.3308 B( 42-C , 43-C ) :   1.3415 B( 42-C , 72-H ) :   1.0152
B( 43-C , 44-C ) :   0.9624 B( 44-C , 45-O ) :   2.1548 B( 46-C , 47-C ) :   1.1199
B( 46-C , 73-H ) :   0.9185 B( 46-C , 74-H ) :   0.9273 B( 47-C , 75-H ) :   0.9605
B( 47-C , 76-H ) :   0.9648 B( 47-C , 77-H ) :   0.9679 B( 48-C , 49-S ) :   1.1081
B( 48-C , 52-C ) :   1.4767 B( 49-S , 50-C ) :   1.1266 B( 50-C , 51-C ) :   1.5176
B( 50-C , 53-C ) :   1.1744 B( 51-C , 52-C ) :   1.2876 B( 51-C , 55-Ge) :   0.8738
B( 52-C , 78-H ) :   0.9960 B( 53-C , 54-C ) :   1.5161 B( 53-C , 56-S ) :   1.1204
B( 53-C , 57-C ) :   0.1004 B( 54-C , 55-Ge) :   0.8727 B( 54-C , 58-C ) :   1.3047
B( 55-Ge, 61-C ) :   0.9810 B( 55-Ge, 62-C ) :   0.9733 B( 56-S , 57-C ) :   1.1164
B( 57-C , 58-C ) :   1.4728 B( 58-C , 79-H ) :   1.0000 B( 59-C , 60-C ) :   1.0882
B( 59-C , 80-H ) :   0.9308 B( 59-C , 81-H ) :   0.9319 B( 60-C , 82-H ) :   0.9687
B( 60-C , 83-H ) :   0.9724 B( 60-C , 84-H ) :   0.9744 B( 61-C , 63-C ) :   1.0693
B( 61-C , 85-H ) :   0.9444 B( 61-C , 86-H ) :   0.9406 B( 62-C , 64-C ) :   1.0692
B( 62-C , 87-H ) :   0.9430 B( 62-C , 88-H ) :   0.9449 B( 63-C , 89-H ) :   0.9754
B( 63-C , 90-H ) :   0.9670 B( 63-C , 91-H ) :   0.9764 B( 64-C , 92-H ) :   0.9749
B( 64-C , 93-H ) :   0.9680 B( 64-C , 94-H ) :   0.9770

-----------------------------------------------------------------------------
         ABSORPTION SPECTRUM VIA TRANSITION ELECTRIC DIPOLE MOMENTS
-----------------------------------------------------------------------------
State   Energy  Wavelength   fosc         T2         TX        TY        TZ
        (cm-1)    (nm)                  (au**2)     (au)      (au)      (au)
-----------------------------------------------------------------------------
   0   17864.2    559.8   2.376977643  43.80439  -5.32614  -2.71826   2.83684
   1   25836.5    387.0   1.648911548  21.01065   2.61306  -1.75020   3.33457
   2   29737.7    336.3   0.056199829   0.62216   0.75529  -0.12766  -0.18814
   3   30142.7    331.8   0.081636424   0.89161   0.29622  -0.25601   0.85926
   4   31948.8    313.0   0.007558197   0.07788  -0.00475   0.26651  -0.08267
   5   33428.3    299.1   0.202341995   1.99273  -0.74513   0.25802   1.17087
   6   34828.6    287.1   0.138148294   1.30582   0.85842   0.20087  -0.72705
   7   34930.5    286.3   0.069282368   0.65297  -0.66728   0.12027   0.43959
   8   36816.5    271.6   0.109720787   0.98112  -0.09160   0.98544   0.04049
   9   38092.6    262.5   0.598624060   5.17356   1.74152   0.41146  -1.40405
  10   39425.9    253.6   0.204059698   1.70393  -0.50487   0.12561   1.19719
  11   40163.4    249.0   0.770405499   6.31488   2.23418  -1.13649  -0.17812

Dispersion correction           -0.053685464
FINAL SINGLE POINT ENERGY     -6358.441643587109

DIPOLE MOMENT
-------------
                                X             Y             Z
Electronic contribution:    -26.61450      25.53303     -48.95320
Nuclear contribution   :     30.22897     -28.57464      53.21261
                        -----------------------------------------
Total Dipole Moment    :      3.61447      -3.04161       4.25941
                        -----------------------------------------
Magnitude (a.u.)       :      6.36069
Magnitude (Debye)      :     16.16758

Rotational constants in cm-1:     0.001393     0.000270     0.000232
Rotational constants in MHz :    41.755117     8.089129     6.948958

                             ****ORCA TERMINATED NORMALLY****
TOTAL RUN TIME: 0 days 0 hours 9 minutes 56 seconds 725 msec
