                         Program Version 4.2.0 -  RELEASE  -
|  1> # ORCA input file
|  2> # SCF done       -174.977743743257          0.000234669787
|  3> ! wb97x-d3 def2-SVP def2/J RIJCOSX Grid4 TightSCF
|  4> %maxcore 5000
|  5> %tddft
|  6>     Mode sTDA
|  7>     Ethresh 5.0
|  8>     maxcore 5000
|  9> end
| 10>
| 11> %pal
| 12>   nprocs 6
| 13>   end
| 14> * xyz 0 1
| 15>    S       -5.95308         3.83699         0.18504
| 16>    C       -5.60915         5.50865        -0.25297
| 17>    S       -6.74331         6.56035        -0.76976
| 18>    N       -4.28894         5.77121        -0.10668
| 19>    C       -3.72908         7.08455        -0.36049
| 20>    C       -3.90257         7.99832         0.84615
| 21>    C       -3.48007         4.73851         0.34310
| 22>    O       -2.28702         4.85217         0.50824
| 23>    C       -4.27608         3.52915         0.57462
| 24>    C       -3.69858         2.39740         1.04443
| 25>    C       -4.27628         1.13625         1.36791
| 26>    C       -3.43587         0.13528         1.92925
| 27>    N       -2.13092         0.22882         2.17189
| 28>    S       -1.61665        -1.14870         2.81980
| 29>    N       -3.02164        -1.93307         2.82888
| 30>    C       -3.96125        -1.14214         2.31804
| 31>    C       -5.33624        -1.45899         2.14946
| 32>    C       -6.11853        -0.45985         1.57299
| 33>    C       -5.61236         0.77909         1.20212
| 34>    C       -5.84797        -2.72176         2.57186
| 35>    C       -7.14533        -3.20462         2.45536
| 36>    C       -7.29247        -4.46744         3.01402
| 37>    C       -6.10400        -4.95720         3.54141
| 38>    S       -4.79408        -3.86648         3.37152
| 39>    C       -6.28473        -6.27527         4.05833
| 40>    C       -7.63717        -6.62500         3.83804
| 41>    C       -8.39668        -5.47549         3.19472
| 42>    C       -9.45763        -4.98944         4.20768
| 43>    C      -10.17984        -3.70564         3.82126
| 44>    C       -9.03346        -5.88190         1.85692
| 45>    C       -8.02153        -6.47872         0.88568
| 46>    C       -8.11186        -7.85901         4.21824
| 47>    C       -7.21082        -8.73441         4.82074
| 48>    C       -5.85952        -8.37818         5.04907
| 49>    C       -5.38498        -7.14640         4.66777
| 50>    C       -5.10532        -9.50511         5.72672
| 51>    C       -3.93448       -10.00417         4.85993
| 52>    C       -4.37253       -10.45203         3.47083
| 53>    C       -4.57907        -9.07734         7.10959
| 54>    C       -5.67921        -8.56891         8.03330
| 55>    C       -6.18383       -10.54391         5.84560
| 56>    C       -7.37355       -10.06559         5.31532
| 57>    S       -8.64105       -11.21504         5.41458
| 58>    C       -7.55502       -12.36465         6.18392
| 59>    C       -6.28328       -11.83838         6.33811
| 60>    C       -8.01492       -13.66309         6.55553
| 61>    C       -7.16031       -14.60500         7.19617
| 62>    N       -5.88585       -14.44563         7.54970
| 63>    S       -5.35891       -15.79831         8.24406
| 64>    N       -6.71290       -16.65377         8.13225
| 65>    C       -7.64700       -15.91297         7.54264
| 66>    C       -8.98239       -16.31357         7.25851
| 67>    C       -9.78289       -15.35634         6.64175
| 68>    C       -9.31704       -14.09171         6.30950
| 69>    C       -9.37598       -17.63547         7.61504
| 70>    C      -10.55466       -18.27759         7.43320
| 71>    S      -12.03005       -17.69890         6.69401
| 72>    C      -12.83662       -19.24490         6.94792
| 73>    S      -14.37089       -19.55194         6.48855
| 74>    N      -12.00028       -20.11759         7.55836
| 75>    C      -12.40895       -21.46354         7.91077
| 76>    C      -13.15760       -21.48371         9.23721
| 77>    C      -10.72637       -19.66713         7.86915
| 78>    O       -9.89279       -20.35402         8.41400
| 79>    H       -2.66853         6.93114        -0.57374
| 80>    H       -4.23223         7.50496        -1.23445
| 81>    H       -3.41051         7.57029         1.71665
| 82>    H       -3.45966         8.96699         0.63477
| 83>    H       -4.95853         8.13805         1.06620
| 84>    H       -2.63042         2.47093         1.21834
| 85>    H       -7.16885        -0.64604         1.41392
| 86>    H       -6.29413         1.49379         0.76856
| 87>    H       -7.92875        -2.65487         1.96692
| 88>    H      -10.18899        -5.78968         4.33795
| 89>    H       -8.95931        -4.83733         5.16868
| 90>    H      -10.70031        -3.81253         2.87342
| 91>    H      -10.91606        -3.46181         4.58393
| 92>    H       -9.48162        -2.87631         3.74965
| 93>    H       -9.82392        -6.60944         2.05137
| 94>    H       -9.48810        -5.00216         1.39980
| 95>    H       -7.56895        -7.37556         1.30269
| 96>    H       -8.51119        -6.74268        -0.04868
| 97>    H       -7.23007        -5.76484         0.66877
| 98>    H       -9.13751        -8.15541         4.05817
| 99>    H       -4.35929        -6.84984         4.82540
|100>    H       -3.20304        -9.19906         4.76716
|101>    H       -3.45419       -10.83828         5.37546
|102>    H       -4.85203        -9.63470         2.93647
|103>    H       -3.51008       -10.78011         2.89563
|104>    H       -5.07527       -11.27958         3.53606
|105>    H       -4.08527        -9.93478         7.57127
|106>    H       -3.83245        -8.29326         6.96949
|107>    H       -6.41939        -9.34476         8.21504
|108>    H       -5.25492        -8.27030         8.98886
|109>    H       -6.18246        -7.70925         7.59610
|110>    H       -5.48906       -12.40206         6.79067
|111>    H      -10.80735       -15.59883         6.40721
|112>    H       -9.99726       -13.40322         5.82918
|113>    H       -8.60768       -18.22717         8.10120
|114>    H      -13.04336       -21.84619         7.10776
|115>    H      -11.49271       -22.05458         7.98098
|116>    H      -14.06250       -20.88434         9.17019
|117>    H      -13.43342       -22.50501         9.48235
|118>    H      -12.52715       -21.09055        10.03136
|119> *
|120>
|121>                          ****END OF INPUT****

CARTESIAN COORDINATES (ANGSTROEM)
---------------------------------
  S     -5.953080    3.836990    0.185040
  C     -5.609150    5.508650   -0.252970
  S     -6.743310    6.560350   -0.769760
  N     -4.288940    5.771210   -0.106680
  C     -3.729080    7.084550   -0.360490
  C     -3.902570    7.998320    0.846150
  C     -3.480070    4.738510    0.343100
  O     -2.287020    4.852170    0.508240
  C     -4.276080    3.529150    0.574620
  C     -3.698580    2.397400    1.044430
  C     -4.276280    1.136250    1.367910
  C     -3.435870    0.135280    1.929250
  N     -2.130920    0.228820    2.171890
  S     -1.616650   -1.148700    2.819800
  N     -3.021640   -1.933070    2.828880
  C     -3.961250   -1.142140    2.318040
  C     -5.336240   -1.458990    2.149460
  C     -6.118530   -0.459850    1.572990
  C     -5.612360    0.779090    1.202120
  C     -5.847970   -2.721760    2.571860
  C     -7.145330   -3.204620    2.455360
  C     -7.292470   -4.467440    3.014020
  C     -6.104000   -4.957200    3.541410
  S     -4.794080   -3.866480    3.371520
  C     -6.284730   -6.275270    4.058330
  C     -7.637170   -6.625000    3.838040
  C     -8.396680   -5.475490    3.194720
  C     -9.457630   -4.989440    4.207680
  C    -10.179840   -3.705640    3.821260
  C     -9.033460   -5.881900    1.856920
  C     -8.021530   -6.478720    0.885680
  C     -8.111860   -7.859010    4.218240
  C     -7.210820   -8.734410    4.820740
  C     -5.859520   -8.378180    5.049070
  C     -5.384980   -7.146400    4.667770
  C     -5.105320   -9.505110    5.726720
  C     -3.934480  -10.004170    4.859930
  C     -4.372530  -10.452030    3.470830
  C     -4.579070   -9.077340    7.109590
  C     -5.679210   -8.568910    8.033300
  C     -6.183830  -10.543910    5.845600
  C     -7.373550  -10.065590    5.315320
  S     -8.641050  -11.215040    5.414580
  C     -7.555020  -12.364650    6.183920
  C     -6.283280  -11.838380    6.338110
  C     -8.014920  -13.663090    6.555530
  C     -7.160310  -14.605000    7.196170
  N     -5.885850  -14.445630    7.549700
  S     -5.358910  -15.798310    8.244060
  N     -6.712900  -16.653770    8.132250
  C     -7.647000  -15.912970    7.542640
  C     -8.982390  -16.313570    7.258510
  C     -9.782890  -15.356340    6.641750
  C     -9.317040  -14.091710    6.309500
  C     -9.375980  -17.635470    7.615040
  C    -10.554660  -18.277590    7.433200
  S    -12.030050  -17.698900    6.694010
  C    -12.836620  -19.244900    6.947920
  S    -14.370890  -19.551940    6.488550
  N    -12.000280  -20.117590    7.558360
  C    -12.408950  -21.463540    7.910770
  C    -13.157600  -21.483710    9.237210
  C    -10.726370  -19.667130    7.869150
  O     -9.892790  -20.354020    8.414000
  H     -2.668530    6.931140   -0.573740
  H     -4.232230    7.504960   -1.234450
  H     -3.410510    7.570290    1.716650
  H     -3.459660    8.966990    0.634770
  H     -4.958530    8.138050    1.066200
  H     -2.630420    2.470930    1.218340
  H     -7.168850   -0.646040    1.413920
  H     -6.294130    1.493790    0.768560
  H     -7.928750   -2.654870    1.966920
  H    -10.188990   -5.789680    4.337950
  H     -8.959310   -4.837330    5.168680
  H    -10.700310   -3.812530    2.873420
  H    -10.916060   -3.461810    4.583930
  H     -9.481620   -2.876310    3.749650
  H     -9.823920   -6.609440    2.051370
  H     -9.488100   -5.002160    1.399800
  H     -7.568950   -7.375560    1.302690
  H     -8.511190   -6.742680   -0.048680
  H     -7.230070   -5.764840    0.668770
  H     -9.137510   -8.155410    4.058170
  H     -4.359290   -6.849840    4.825400
  H     -3.203040   -9.199060    4.767160
  H     -3.454190  -10.838280    5.375460
  H     -4.852030   -9.634700    2.936470
  H     -3.510080  -10.780110    2.895630
  H     -5.075270  -11.279580    3.536060
  H     -4.085270   -9.934780    7.571270
  H     -3.832450   -8.293260    6.969490
  H     -6.419390   -9.344760    8.215040
  H     -5.254920   -8.270300    8.988860
  H     -6.182460   -7.709250    7.596100
  H     -5.489060  -12.402060    6.790670
  H    -10.807350  -15.598830    6.407210
  H     -9.997260  -13.403220    5.829180
  H     -8.607680  -18.227170    8.101200
  H    -13.043360  -21.846190    7.107760
  H    -11.492710  -22.054580    7.980980
  H    -14.062500  -20.884340    9.170190
  H    -13.433420  -22.505010    9.482350
  H    -12.527150  -21.090550   10.031360

 Total Charge           Charge          ....    0
 Multiplicity           Mult            ....    1
 Number of Electrons    NEL             ....  514
 Basis Dimension        Dim             .... 1128

ORBITAL ENERGIES
----------------

  NO   OCC          E(Eh)            E(eV)
   0   2.0000     -89.052836     -2423.2509
   1   2.0000     -89.051643     -2423.2184
   2   2.0000     -88.987554     -2421.4744
   3   2.0000     -88.986963     -2421.4584
   4   2.0000     -88.985639     -2421.4223
   5   2.0000     -88.981299     -2421.3042
   6   2.0000     -88.909364     -2419.3468
   7   2.0000     -88.909277     -2419.3444
   8   2.0000     -19.242169      -523.6060
   9   2.0000     -19.241674      -523.5926
  10   2.0000     -14.509858      -394.8333
  11   2.0000     -14.509605      -394.8264
  12   2.0000     -14.482856      -394.0985
  13   2.0000     -14.482113      -394.0783
  14   2.0000     -14.480517      -394.0349
  15   2.0000     -14.479742      -394.0138
  16   2.0000     -10.425890      -283.7029
  17   2.0000     -10.425350      -283.6882
  18   2.0000     -10.419884      -283.5395
  19   2.0000     -10.419537      -283.5300
  20   2.0000     -10.363031      -281.9924
  21   2.0000     -10.362018      -281.9649
  22   2.0000     -10.361724      -281.9568
  23   2.0000     -10.361400      -281.9480
  24   2.0000     -10.349019      -281.6111
  25   2.0000     -10.348549      -281.5983
  26   2.0000     -10.346385      -281.5394
  27   2.0000     -10.345974      -281.5283
  28   2.0000     -10.340462      -281.3783
  29   2.0000     -10.340237      -281.3722
  30   2.0000     -10.337332      -281.2931
  31   2.0000     -10.336727      -281.2767
  32   2.0000     -10.334321      -281.2112
  33   2.0000     -10.333632      -281.1924
  34   2.0000     -10.333187      -281.1803
  35   2.0000     -10.332621      -281.1649
  36   2.0000     -10.332550      -281.1630
  37   2.0000     -10.331813      -281.1429
  38   2.0000     -10.331112      -281.1239
  39   2.0000     -10.325850      -280.9807
  40   2.0000     -10.324788      -280.9518
  41   2.0000     -10.324396      -280.9411
  42   2.0000     -10.320573      -280.8371
  43   2.0000     -10.317706      -280.7590
  44   2.0000     -10.316977      -280.7392
  45   2.0000     -10.315622      -280.7023
  46   2.0000     -10.315203      -280.6909
  47   2.0000     -10.309795      -280.5438
  48   2.0000     -10.309193      -280.5274
  49   2.0000     -10.309024      -280.5228
  50   2.0000     -10.308246      -280.5016
  51   2.0000     -10.307758      -280.4883
  52   2.0000     -10.303385      -280.3694
  53   2.0000     -10.301974      -280.3310
  54   2.0000     -10.300379      -280.2876
  55   2.0000     -10.300039      -280.2783
  56   2.0000     -10.298150      -280.2269
  57   2.0000     -10.298088      -280.2252
  58   2.0000     -10.287973      -279.9500
  59   2.0000     -10.287946      -279.9492
  60   2.0000     -10.287359      -279.9333
  61   2.0000     -10.281162      -279.7646
  62   2.0000     -10.279218      -279.7118
  63   2.0000     -10.278944      -279.7043
  64   2.0000      -8.163326      -222.1354
  65   2.0000      -8.162292      -222.1073
  66   2.0000      -8.102364      -220.4765
  67   2.0000      -8.101802      -220.4612
  68   2.0000      -8.098802      -220.3796
  69   2.0000      -8.093651      -220.2395
  70   2.0000      -8.025363      -218.3812
  71   2.0000      -8.025090      -218.3738
  72   2.0000      -6.124820      -166.6648
  73   2.0000      -6.123822      -166.6377
  74   2.0000      -6.116890      -166.4490
  75   2.0000      -6.115803      -166.4195
  76   2.0000      -6.115768      -166.4185
  77   2.0000      -6.114812      -166.3925
  78   2.0000      -6.062432      -164.9672
  79   2.0000      -6.061877      -164.9521
  80   2.0000      -6.058302      -164.8548
  81   2.0000      -6.058276      -164.8541
  82   2.0000      -6.057741      -164.8395
  83   2.0000      -6.054271      -164.7451
  84   2.0000      -6.053214      -164.7163
  85   2.0000      -6.053077      -164.7126
  86   2.0000      -6.052497      -164.6968
  87   2.0000      -6.051216      -164.6620
  88   2.0000      -6.048824      -164.5969
  89   2.0000      -6.046148      -164.5241
  90   2.0000      -5.985428      -162.8718
  91   2.0000      -5.985135      -162.8638
  92   2.0000      -5.981925      -162.7764
  93   2.0000      -5.981726      -162.7710
  94   2.0000      -5.975576      -162.6037
  95   2.0000      -5.975334      -162.5971
  96   2.0000      -1.189191       -32.3595
  97   2.0000      -1.188751       -32.3475
  98   2.0000      -1.168781       -31.8042
  99   2.0000      -1.167593       -31.7718
 100   2.0000      -1.116167       -30.3725
 101   2.0000      -1.115707       -30.3599
 102   2.0000      -1.046016       -28.4636
 103   2.0000      -1.038969       -28.2718
 104   2.0000      -1.025778       -27.9128
 105   2.0000      -1.023553       -27.8523
 106   2.0000      -1.015061       -27.6212
 107   2.0000      -1.011246       -27.5174
 108   2.0000      -0.992051       -26.9951
 109   2.0000      -0.983537       -26.7634
 110   2.0000      -0.979752       -26.6604
 111   2.0000      -0.970917       -26.4200
 112   2.0000      -0.942059       -25.6347
 113   2.0000      -0.933385       -25.3987
 114   2.0000      -0.931558       -25.3490
 115   2.0000      -0.918383       -24.9905
 116   2.0000      -0.909356       -24.7448
 117   2.0000      -0.904719       -24.6187
 118   2.0000      -0.904094       -24.6016
 119   2.0000      -0.902224       -24.5508
 120   2.0000      -0.885832       -24.1047
 121   2.0000      -0.879930       -23.9441
 122   2.0000      -0.876357       -23.8469
 123   2.0000      -0.874409       -23.7939
 124   2.0000      -0.871880       -23.7250
 125   2.0000      -0.869251       -23.6535
 126   2.0000      -0.864453       -23.5230
 127   2.0000      -0.864110       -23.5136
 128   2.0000      -0.854790       -23.2600
 129   2.0000      -0.843657       -22.9571
 130   2.0000      -0.812326       -22.1045
 131   2.0000      -0.807005       -21.9597
 132   2.0000      -0.796212       -21.6660
 133   2.0000      -0.789115       -21.4729
 134   2.0000      -0.779602       -21.2140
 135   2.0000      -0.777399       -21.1541
 136   2.0000      -0.776615       -21.1328
 137   2.0000      -0.763311       -20.7707
 138   2.0000      -0.759843       -20.6764
 139   2.0000      -0.755927       -20.5698
 140   2.0000      -0.751117       -20.4389
 141   2.0000      -0.750845       -20.4315
 142   2.0000      -0.738628       -20.0991
 143   2.0000      -0.738069       -20.0839
 144   2.0000      -0.727601       -19.7990
 145   2.0000      -0.721091       -19.6219
 146   2.0000      -0.710638       -19.3374
 147   2.0000      -0.708883       -19.2897
 148   2.0000      -0.692669       -18.8485
 149   2.0000      -0.688987       -18.7483
 150   2.0000      -0.680584       -18.5196
 151   2.0000      -0.674454       -18.3528
 152   2.0000      -0.667941       -18.1756
 153   2.0000      -0.663714       -18.0606
 154   2.0000      -0.655128       -17.8269
 155   2.0000      -0.650646       -17.7050
 156   2.0000      -0.645413       -17.5626
 157   2.0000      -0.633698       -17.2438
 158   2.0000      -0.630836       -17.1659
 159   2.0000      -0.625695       -17.0260
 160   2.0000      -0.624546       -16.9947
 161   2.0000      -0.615589       -16.7510
 162   2.0000      -0.612651       -16.6711
 163   2.0000      -0.610948       -16.6247
 164   2.0000      -0.601736       -16.3741
 165   2.0000      -0.601354       -16.3637
 166   2.0000      -0.592330       -16.1181
 167   2.0000      -0.592026       -16.1099
 168   2.0000      -0.589935       -16.0529
 169   2.0000      -0.589521       -16.0417
 170   2.0000      -0.584577       -15.9071
 171   2.0000      -0.581565       -15.8252
 172   2.0000      -0.580873       -15.8064
 173   2.0000      -0.574654       -15.6371
 174   2.0000      -0.571192       -15.5429
 175   2.0000      -0.568794       -15.4777
 176   2.0000      -0.563904       -15.3446
 177   2.0000      -0.562118       -15.2960
 178   2.0000      -0.560457       -15.2508
 179   2.0000      -0.557298       -15.1648
 180   2.0000      -0.554332       -15.0841
 181   2.0000      -0.551773       -15.0145
 182   2.0000      -0.551050       -14.9948
 183   2.0000      -0.549992       -14.9660
 184   2.0000      -0.538351       -14.6493
 185   2.0000      -0.535566       -14.5735
 186   2.0000      -0.534978       -14.5575
 187   2.0000      -0.530986       -14.4489
 188   2.0000      -0.527686       -14.3591
 189   2.0000      -0.518822       -14.1179
 190   2.0000      -0.515800       -14.0356
 191   2.0000      -0.515219       -14.0198
 192   2.0000      -0.512830       -13.9548
 193   2.0000      -0.512035       -13.9332
 194   2.0000      -0.511278       -13.9126
 195   2.0000      -0.506788       -13.7904
 196   2.0000      -0.505508       -13.7556
 197   2.0000      -0.504246       -13.7212
 198   2.0000      -0.502027       -13.6609
 199   2.0000      -0.500816       -13.6279
 200   2.0000      -0.499439       -13.5904
 201   2.0000      -0.495606       -13.4861
 202   2.0000      -0.492512       -13.4019
 203   2.0000      -0.491843       -13.3837
 204   2.0000      -0.490789       -13.3550
 205   2.0000      -0.487414       -13.2632
 206   2.0000      -0.486209       -13.2304
 207   2.0000      -0.484307       -13.1787
 208   2.0000      -0.480205       -13.0671
 209   2.0000      -0.479533       -13.0488
 210   2.0000      -0.478195       -13.0123
 211   2.0000      -0.477303       -12.9881
 212   2.0000      -0.476699       -12.9716
 213   2.0000      -0.474356       -12.9079
 214   2.0000      -0.470992       -12.8163
 215   2.0000      -0.469747       -12.7825
 216   2.0000      -0.468902       -12.7595
 217   2.0000      -0.464232       -12.6324
 218   2.0000      -0.463704       -12.6180
 219   2.0000      -0.460946       -12.5430
 220   2.0000      -0.457007       -12.4358
 221   2.0000      -0.455612       -12.3978
 222   2.0000      -0.452971       -12.3260
 223   2.0000      -0.451864       -12.2958
 224   2.0000      -0.451357       -12.2820
 225   2.0000      -0.448265       -12.1979
 226   2.0000      -0.438625       -11.9356
 227   2.0000      -0.434169       -11.8144
 228   2.0000      -0.431789       -11.7496
 229   2.0000      -0.431322       -11.7369
 230   2.0000      -0.428424       -11.6580
 231   2.0000      -0.427570       -11.6348
 232   2.0000      -0.426716       -11.6115
 233   2.0000      -0.425187       -11.5699
 234   2.0000      -0.423777       -11.5316
 235   2.0000      -0.420018       -11.4293
 236   2.0000      -0.413070       -11.2402
 237   2.0000      -0.406068       -11.0497
 238   2.0000      -0.404119       -10.9966
 239   2.0000      -0.393582       -10.7099
 240   2.0000      -0.388171       -10.5627
 241   2.0000      -0.387662       -10.5488
 242   2.0000      -0.380798       -10.3620
 243   2.0000      -0.373429       -10.1615
 244   2.0000      -0.372488       -10.1359
 245   2.0000      -0.367933       -10.0120
 246   2.0000      -0.356485        -9.7005
 247   2.0000      -0.355185        -9.6651
 248   2.0000      -0.350230        -9.5302
 249   2.0000      -0.346447        -9.4273
 250   2.0000      -0.343491        -9.3469
 251   2.0000      -0.331165        -9.0115
 252   2.0000      -0.322607        -8.7786
 253   2.0000      -0.322118        -8.7653
 254   2.0000      -0.314355        -8.5540
 255   2.0000      -0.287702        -7.8288
 256   2.0000      -0.258430        -7.0322
 257   0.0000      -0.071132        -1.9356
 258   0.0000      -0.061688        -1.6786
 259   0.0000      -0.010472        -0.2849
 260   0.0000      -0.009242        -0.2515
 261   0.0000      -0.000383        -0.0104

MULLIKEN ATOMIC CHARGES
-----------------------
   0 S :    0.098393
   1 C :    0.037991
   2 S :   -0.172411
   3 N :   -0.278317
   4 C :    0.077701
   5 C :   -0.047247
   6 C :    0.286017
   7 O :   -0.206405
   8 C :   -0.180741
   9 C :    0.003131
  10 C :    0.007013
  11 C :    0.053811
  12 N :   -0.308653
  13 S :    0.535829
  14 N :   -0.344157
  15 C :    0.007746
  16 C :    0.125319
  17 C :   -0.070379
  18 C :   -0.020174
  19 C :   -0.114757
  20 C :   -0.057759
  21 C :    0.030153
  22 C :   -0.034850
  23 S :    0.180722
  24 C :    0.027836
  25 C :    0.005728
  26 C :   -0.212002
  27 C :    0.042885
  28 C :   -0.021453
  29 C :    0.017166
  30 C :   -0.018492
  31 C :   -0.087784
  32 C :    0.036777
  33 C :   -0.005270
  34 C :   -0.088113
  35 C :   -0.225714
  36 C :    0.033555
  37 C :   -0.019238
  38 C :    0.034082
  39 C :   -0.018041
  40 C :    0.025110
  41 C :   -0.034089
  42 S :    0.119591
  43 C :   -0.126337
  44 C :   -0.036298
  45 C :    0.109651
  46 C :    0.040332
  47 N :   -0.327556
  48 S :    0.529878
  49 N :   -0.306543
  50 C :    0.034245
  51 C :    0.017829
  52 C :   -0.031801
  53 C :   -0.069794
  54 C :    0.002406
  55 C :   -0.178199
  56 S :    0.099848
  57 C :    0.036283
  58 S :   -0.171566
  59 N :   -0.277125
  60 C :    0.079134
  61 C :   -0.048777
  62 C :    0.283728
  63 O :   -0.206401
  64 H :    0.065314
  65 H :    0.057148
  66 H :    0.043514
  67 H :    0.045431
  68 H :    0.046057
  69 H :    0.059210
  70 H :    0.006835
  71 H :    0.020914
  72 H :    0.004250
  73 H :    0.020202
  74 H :    0.030387
  75 H :    0.025129
  76 H :    0.039463
  77 H :    0.032478
  78 H :    0.023569
  79 H :    0.027012
  80 H :    0.039381
  81 H :    0.032339
  82 H :    0.039889
  83 H :   -0.015314
  84 H :   -0.013464
  85 H :    0.022783
  86 H :    0.025335
  87 H :    0.039049
  88 H :    0.032450
  89 H :    0.041211
  90 H :    0.025307
  91 H :    0.023145
  92 H :    0.040613
  93 H :    0.031760
  94 H :    0.038418
  95 H :    0.017860
  96 H :    0.021426
  97 H :    0.021445
  98 H :    0.059321
  99 H :    0.057550
 100 H :    0.064220
 101 H :    0.045413
 102 H :    0.045992
 103 H :    0.043507
Sum of atomic charges:    0.0000000

LOEWDIN ATOMIC CHARGES
----------------------
   0 S :    0.374772
   1 C :   -0.234413
   2 S :   -0.042022
   3 N :   -0.026893
   4 C :    0.039557
   5 C :   -0.061922
   6 C :    0.078413
   7 O :   -0.172919
   8 C :   -0.216767
   9 C :    0.022891
  10 C :   -0.061744
  11 C :   -0.035747
  12 N :   -0.282424
  13 S :    0.646155
  14 N :   -0.297123
  15 C :   -0.052977
  16 C :   -0.021629
  17 C :   -0.022887
  18 C :    0.004538
  19 C :   -0.175788
  20 C :   -0.043646
  21 C :   -0.046882
  22 C :   -0.176831
  23 S :    0.473254
  24 C :   -0.033123
  25 C :    0.007079
  26 C :   -0.039016
  27 C :   -0.012882
  28 C :   -0.062003
  29 C :   -0.018663
  30 C :   -0.058528
  31 C :   -0.025951
  32 C :   -0.033514
  33 C :    0.005706
  34 C :   -0.024934
  35 C :   -0.040485
  36 C :   -0.014918
  37 C :   -0.060048
  38 C :   -0.014664
  39 C :   -0.059790
  40 C :   -0.046657
  41 C :   -0.168941
  42 S :    0.424466
  43 C :   -0.170578
  44 C :   -0.032461
  45 C :   -0.021249
  46 C :   -0.041068
  47 N :   -0.281257
  48 S :    0.642078
  49 N :   -0.282050
  50 C :   -0.035836
  51 C :   -0.060600
  52 C :    0.004833
  53 C :   -0.031718
  54 C :    0.022646
  55 C :   -0.216263
  56 S :    0.375210
  57 C :   -0.234664
  58 S :   -0.041501
  59 N :   -0.026785
  60 C :    0.039689
  61 C :   -0.062103
  62 C :    0.078180
  63 O :   -0.173020
  64 H :    0.036027
  65 H :    0.027365
  66 H :    0.029884
  67 H :    0.034315
  68 H :    0.026104
  69 H :    0.055199
  70 H :    0.035283
  71 H :    0.022737
  72 H :    0.028956
  73 H :    0.021811
  74 H :    0.029688
  75 H :    0.022027
  76 H :    0.031505
  77 H :    0.024546
  78 H :    0.022770
  79 H :    0.022157
  80 H :    0.026645
  81 H :    0.026810
  82 H :    0.027498
  83 H :    0.028688
  84 H :    0.029632
  85 H :    0.022380
  86 H :    0.024369
  87 H :    0.026768
  88 H :    0.027013
  89 H :    0.027354
  90 H :    0.024373
  91 H :    0.022436
  92 H :    0.027329
  93 H :    0.026804
  94 H :    0.026903
  95 H :    0.032146
  96 H :    0.023189
  97 H :    0.029303
  98 H :    0.054851
  99 H :    0.027455
 100 H :    0.035798
 101 H :    0.025994
 102 H :    0.034376
 103 H :    0.029930

  Mayer bond orders larger than 0.100000
B(  0-S ,  1-C ) :   1.0403 B(  0-S ,  8-C ) :   1.0125 B(  1-C ,  2-S ) :   1.6910
B(  1-C ,  3-N ) :   1.1527 B(  3-N ,  4-C ) :   0.8973 B(  3-N ,  6-C ) :   1.0394
B(  4-C ,  5-C ) :   1.1031 B(  4-C , 64-H ) :   0.9419 B(  4-C , 65-H ) :   0.9434
B(  5-C , 66-H ) :   0.9705 B(  5-C , 67-H ) :   0.9745 B(  5-C , 68-H ) :   0.9679
B(  6-C ,  7-O ) :   2.1302 B(  6-C ,  8-C ) :   0.9593 B(  8-C ,  9-C ) :   1.7322
B(  9-C , 10-C ) :   1.1253 B(  9-C , 69-H ) :   0.9621 B( 10-C , 11-C ) :   1.1735
B( 10-C , 18-C ) :   1.4252 B( 11-C , 12-N ) :   1.5461 B( 11-C , 15-C ) :   1.1624
B( 12-N , 13-S ) :   1.2718 B( 12-N , 14-N ) :   0.1487 B( 13-S , 14-N ) :   1.2656
B( 14-N , 15-C ) :   1.4964 B( 15-C , 16-C ) :   1.1677 B( 16-C , 17-C ) :   1.4596
B( 16-C , 19-C ) :   1.1231 B( 17-C , 18-C ) :   1.2934 B( 17-C , 70-H ) :   0.9925
B( 18-C , 71-H ) :   0.9773 B( 19-C , 20-C ) :   1.4559 B( 19-C , 23-S ) :   1.1245
B( 20-C , 21-C ) :   1.3367 B( 20-C , 72-H ) :   0.9914 B( 21-C , 22-C ) :   1.5179
B( 21-C , 26-C ) :   0.9308 B( 22-C , 23-S ) :   1.0913 B( 22-C , 24-C ) :   1.0771
B( 24-C , 25-C ) :   1.3797 B( 24-C , 34-C ) :   1.3206 B( 25-C , 26-C ) :   0.9193
B( 25-C , 31-C ) :   1.4201 B( 26-C , 27-C ) :   1.0119 B( 26-C , 29-C ) :   1.0244
B( 27-C , 28-C ) :   1.0983 B( 27-C , 73-H ) :   0.9435 B( 27-C , 74-H ) :   0.9475
B( 28-C , 75-H ) :   0.9681 B( 28-C , 76-H ) :   0.9672 B( 28-C , 77-H ) :   0.9661
B( 29-C , 30-C ) :   1.0900 B( 29-C , 78-H ) :   0.9476 B( 29-C , 79-H ) :   0.9472
B( 30-C , 80-H ) :   0.9661 B( 30-C , 81-H ) :   0.9707 B( 30-C , 82-H ) :   0.9689
B( 31-C , 32-C ) :   1.3259 B( 31-C , 83-H ) :   1.0032 B( 32-C , 33-C ) :   1.3691
B( 32-C , 41-C ) :   1.0712 B( 33-C , 34-C ) :   1.4239 B( 33-C , 35-C ) :   0.9028
B( 34-C , 84-H ) :   1.0061 B( 35-C , 36-C ) :   1.0382 B( 35-C , 38-C ) :   1.0357
B( 35-C , 40-C ) :   0.9294 B( 36-C , 37-C ) :   1.0875 B( 36-C , 85-H ) :   0.9466
B( 36-C , 86-H ) :   0.9476 B( 37-C , 87-H ) :   0.9672 B( 37-C , 88-H ) :   0.9698
B( 37-C , 89-H ) :   0.9677 B( 38-C , 39-C ) :   1.0880 B( 38-C , 90-H ) :   0.9480
B( 38-C , 91-H ) :   0.9470 B( 39-C , 92-H ) :   0.9680 B( 39-C , 93-H ) :   0.9701
B( 39-C , 94-H ) :   0.9672 B( 40-C , 41-C ) :   1.5268 B( 40-C , 44-C ) :   1.2795
B( 41-C , 42-S ) :   1.1084 B( 42-S , 43-C ) :   1.0955 B( 43-C , 44-C ) :   1.4851
B( 43-C , 45-C ) :   1.1431 B( 44-C , 95-H ) :   0.9960 B( 45-C , 46-C ) :   1.1876
B( 45-C , 51-C ) :   0.1006 B( 45-C , 53-C ) :   1.4549 B( 46-C , 47-N ) :   1.5124
B( 46-C , 50-C ) :   1.1575 B( 47-N , 48-S ) :   1.2664 B( 47-N , 49-N ) :   0.1476
B( 48-S , 49-N ) :   1.2703 B( 49-N , 50-C ) :   1.5493 B( 50-C , 51-C ) :   1.1706
B( 51-C , 52-C ) :   1.4254 B( 51-C , 54-C ) :   1.1256 B( 52-C , 53-C ) :   1.3009
B( 52-C , 96-H ) :   0.9792 B( 53-C , 97-H ) :   0.9840 B( 54-C , 55-C ) :   1.7341
B( 54-C , 98-H ) :   0.9597 B( 55-C , 56-S ) :   1.0119 B( 55-C , 62-C ) :   0.9609
B( 56-S , 57-C ) :   1.0401 B( 57-C , 58-S ) :   1.6921 B( 57-C , 59-N ) :   1.1521
B( 59-N , 60-C ) :   0.8977 B( 59-N , 62-C ) :   1.0399 B( 60-C , 61-C ) :   1.1044
B( 60-C , 99-H ) :   0.9431 B( 60-C ,100-H ) :   0.9419 B( 61-C ,101-H ) :   0.9680
B( 61-C ,102-H ) :   0.9742 B( 61-C ,103-H ) :   0.9706 B( 62-C , 63-O ) :   2.1293

-----------------------------------------------------------------------------
         ABSORPTION SPECTRUM VIA TRANSITION ELECTRIC DIPOLE MOMENTS
-----------------------------------------------------------------------------
State   Energy  Wavelength   fosc         T2         TX        TY        TZ
        (cm-1)    (nm)                  (au**2)     (au)      (au)      (au)
-----------------------------------------------------------------------------
   0   18166.9    550.5   3.409214742  61.78001   2.10174   7.24052  -2.22206
   1   23222.8    430.6   0.094771051   1.34350   1.06822  -0.10453   0.43757
   2   30933.0    323.3   0.033109637   0.35238  -0.37988  -0.35805  -0.28261
   3   31688.7    315.6   0.147431985   1.53166   1.11567  -0.29064   0.44997
   4   33052.1    302.6   0.317510494   3.16253  -0.38168  -1.68294   0.42961
   5   35428.7    282.3   0.215108451   1.99884   0.06181  -1.36798   0.35162
   6   35771.1    279.6   0.268505906   2.47114   1.48528   0.33377   0.39201
   7   37904.3    263.8   0.003463821   0.03008  -0.16483   0.04497  -0.02990
   8   38329.1    260.9   0.393113278   3.37648  -1.66920   0.48206  -0.59822
   9   38623.5    258.9   0.087508086   0.74589   0.85291   0.07547   0.11286
  10   39298.4    254.5   0.005775581   0.04838   0.13762   0.15359  -0.07651

Dispersion correction           -0.064021410
FINAL SINGLE POINT ENERGY     -5514.416599432630

DIPOLE MOMENT
-------------
                                X             Y             Z
Electronic contribution:     14.41395      -6.88088      -0.36805
Nuclear contribution   :    -13.69655       6.86171       0.76757
                        -----------------------------------------
Total Dipole Moment    :      0.71740      -0.01917       0.39952
                        -----------------------------------------
Magnitude (a.u.)       :      0.82137
Magnitude (Debye)      :      2.08775

Rotational constants in cm-1:     0.003188     0.000201     0.000191
Rotational constants in MHz :    95.567674     6.023609     5.736436

                             ****ORCA TERMINATED NORMALLY****
TOTAL RUN TIME: 0 days 0 hours 9 minutes 49 seconds 693 msec
