                         Program Version 4.2.0 -  RELEASE  -
|  1> # ORCA input file
|  2> # SCF done       -197.177784524292          0.000861411022
|  3> ! wb97x-d3 def2-SVP def2/J RIJCOSX Grid4 TightSCF
|  4> %maxcore 5000
|  5> %tddft
|  6>     Mode sTDA
|  7>     Ethresh 5.0
|  8>     maxcore 5000
|  9> end
| 10>
| 11> %pal
| 12>   nprocs 6
| 13>   end
| 14> * xyz 0 1
| 15>    C        5.07575         0.43405         2.09099
| 16>    O        5.43350        -0.54275         2.72328
| 17>    C        5.82280         1.70321         1.95637
| 18>    C        7.05065         2.03605         2.49186
| 19>    C        7.55095         3.29823         2.21470
| 20>    F        8.73902         3.66450         2.71149
| 21>    C        6.82866         4.18983         1.42190
| 22>    F        7.33627         5.40150         1.16807
| 23>    C        5.59383         3.85445         0.88563
| 24>    C        5.08629         2.59392         1.15814
| 25>    C        3.84009         1.94080         0.75053
| 26>    C        2.86610         2.52138        -0.02055
| 27>    C        1.65565         1.91637        -0.41908
| 28>    N        0.64831         1.50201        -0.78443
| 29>    C        2.93930         3.83535        -0.53036
| 30>    N        2.93474         4.89334        -0.97529
| 31>    C        3.84634         0.60722         1.31527
| 32>    C        2.12740       -18.28018         6.47996
| 33>    O        1.33882       -17.70029         5.76092
| 34>    C        2.14843       -19.74308         6.70431
| 35>    C        1.33421       -20.70033         6.13231
| 36>    C        1.55120       -22.02177         6.48596
| 37>    F        0.78840       -22.98534         5.95448
| 38>    C        2.55992       -22.35768         7.38919
| 39>    F        2.75225       -23.64266         7.70874
| 40>    C        3.37380       -21.39426         7.96635
| 41>    C        3.16196       -20.06917         7.61768
| 42>    C        3.82695       -18.83463         8.03591
| 43>    C        4.79800       -18.76544         9.00105
| 44>    C        5.41470       -17.59417         9.49178
| 45>    N        5.96713       -16.70346         9.96240
| 46>    C        5.31177       -19.88869         9.68495
| 47>    N        5.77693       -20.75510        10.27691
| 48>    C        3.23443       -17.73765         7.28971
| 49>    C        3.01115        -5.20950         3.11590
| 50>    C        1.87822        -5.91371         2.65083
| 51>    C        1.68036        -7.22745         3.00753
| 52>    C        2.63409        -7.82435         3.82859
| 53>    C        3.76006        -7.12004         4.28991
| 54>    C        3.96091        -5.80302         3.94322
| 55>    C        4.62975        -8.00115         5.16697
| 56>    C        5.99957        -8.12933         4.46082
| 57>    C        7.08213        -8.91139         5.19123
| 58>    C        4.72530        -7.33854         6.56356
| 59>    C        4.88638        -8.26616         7.76189
| 60>    C        3.85855        -9.30370         5.13797
| 61>    C        2.70121        -9.17360         4.34137
| 62>    C        1.82445       -10.23199         4.11723
| 63>    C        2.12751       -11.45212         4.67619
| 64>    C        3.27442       -11.57440         5.49465
| 65>    C        4.14576       -10.51403         5.73096
| 66>    C        2.86906        -0.34376         1.13148
| 67>    C        3.72446       -16.45314         7.32566
| 68>    C        3.30413       -12.91779         5.97365
| 69>    C        2.21718       -13.64148         5.48002
| 70>    C        1.37115       -12.76813         4.58793
| 71>    S        4.33054       -13.85264         6.96096
| 72>    C        3.30989       -15.27360         6.69353
| 73>    C        2.22669       -14.96684         5.86998
| 74>    C        1.00515        -5.03742         1.76366
| 75>    C        1.77895        -3.74430         1.80026
| 76>    C        2.93517        -3.88964         2.57745
| 77>    C        1.68804        -2.48333         1.25464
| 78>    C        2.77050        -1.65601         1.60068
| 79>    S        3.91311        -2.49471         2.63982
| 80>    C        1.41262       -13.37879         3.16995
| 81>    C       -0.05318       -12.56834         5.14110
| 82>    C       -0.41428        -4.94769         2.37157
| 83>    C        1.01751        -5.65664         0.34835
| 84>    C       -1.13661        -3.61987         2.17669
| 85>    C        0.21708        -4.90967        -0.70883
| 86>    C        0.65499       -12.61464         2.09263
| 87>    C       -0.91422       -13.82405         5.17523
| 88>    H        7.60533         1.34252         3.10347
| 89>    H        5.07818         4.58066         0.27932
| 90>    H        0.55732       -20.43356         5.43369
| 91>    H        4.13863       -21.70924         8.65658
| 92>    H        0.81781        -7.78061         2.66847
| 93>    H        4.81130        -5.23583         4.28908
| 94>    H        5.82420        -8.59315         3.48586
| 95>    H        6.36933        -7.11777         4.27827
| 96>    H        6.78813        -9.94435         5.35012
| 97>    H        7.98696        -8.91197         4.58655
| 98>    H        7.32070        -8.45487         6.14741
| 99>    H        5.55585        -6.63041         6.54065
|100>    H        3.81026        -6.75992         6.71755
|101>    H        5.78425        -8.87176         7.69265
|102>    H        4.95603        -7.66436         8.66600
|103>    H        4.02650        -8.92382         7.86116
|104>    H        0.93794       -10.08162         3.52200
|105>    H        5.00224       -10.66913         6.36561
|106>    H        2.02901        -0.05457         0.51160
|107>    H        4.60858       -16.31150         7.93591
|108>    H        1.51076       -15.71418         5.58424
|109>    H        0.89408        -2.11771         0.62886
|110>    H        2.46276       -13.45430         2.87461
|111>    H        1.02002       -14.39448         3.23559
|112>    H        0.04045       -12.17246         6.15614
|113>    H       -0.55043       -11.80472         4.54105
|114>    H       -1.01685        -5.75433         1.94984
|115>    H       -0.33234        -5.12945         3.44637
|116>    H        2.06014        -5.72175         0.02516
|117>    H        0.63547        -6.67692         0.42669
|118>    H       -1.23378        -3.36246         1.12704
|119>    H       -2.13535        -3.69009         2.60271
|120>    H       -0.60941        -2.81617         2.68429
|121>    H        0.57285        -3.88977        -0.82072
|122>    H        0.33146        -5.41243        -1.66695
|123>    H       -0.84088        -4.89340        -0.46330
|124>    H        1.10253       -11.64041         1.91684
|125>    H        0.69734       -13.17508         1.16113
|126>    H       -0.39037       -12.48316         2.35824
|127>    H       -1.06225       -14.23137         4.17912
|128>    H       -0.46538       -14.58922         5.80152
|129>    H       -1.89059       -13.57990         5.58838
|130> *
|131>
|132>                          ****END OF INPUT****

CARTESIAN COORDINATES (ANGSTROEM)
---------------------------------
  C      5.075750    0.434050    2.090990
  O      5.433500   -0.542750    2.723280
  C      5.822800    1.703210    1.956370
  C      7.050650    2.036050    2.491860
  C      7.550950    3.298230    2.214700
  F      8.739020    3.664500    2.711490
  C      6.828660    4.189830    1.421900
  F      7.336270    5.401500    1.168070
  C      5.593830    3.854450    0.885630
  C      5.086290    2.593920    1.158140
  C      3.840090    1.940800    0.750530
  C      2.866100    2.521380   -0.020550
  C      1.655650    1.916370   -0.419080
  N      0.648310    1.502010   -0.784430
  C      2.939300    3.835350   -0.530360
  N      2.934740    4.893340   -0.975290
  C      3.846340    0.607220    1.315270
  C      2.127400  -18.280180    6.479960
  O      1.338820  -17.700290    5.760920
  C      2.148430  -19.743080    6.704310
  C      1.334210  -20.700330    6.132310
  C      1.551200  -22.021770    6.485960
  F      0.788400  -22.985340    5.954480
  C      2.559920  -22.357680    7.389190
  F      2.752250  -23.642660    7.708740
  C      3.373800  -21.394260    7.966350
  C      3.161960  -20.069170    7.617680
  C      3.826950  -18.834630    8.035910
  C      4.798000  -18.765440    9.001050
  C      5.414700  -17.594170    9.491780
  N      5.967130  -16.703460    9.962400
  C      5.311770  -19.888690    9.684950
  N      5.776930  -20.755100   10.276910
  C      3.234430  -17.737650    7.289710
  C      3.011150   -5.209500    3.115900
  C      1.878220   -5.913710    2.650830
  C      1.680360   -7.227450    3.007530
  C      2.634090   -7.824350    3.828590
  C      3.760060   -7.120040    4.289910
  C      3.960910   -5.803020    3.943220
  C      4.629750   -8.001150    5.166970
  C      5.999570   -8.129330    4.460820
  C      7.082130   -8.911390    5.191230
  C      4.725300   -7.338540    6.563560
  C      4.886380   -8.266160    7.761890
  C      3.858550   -9.303700    5.137970
  C      2.701210   -9.173600    4.341370
  C      1.824450  -10.231990    4.117230
  C      2.127510  -11.452120    4.676190
  C      3.274420  -11.574400    5.494650
  C      4.145760  -10.514030    5.730960
  C      2.869060   -0.343760    1.131480
  C      3.724460  -16.453140    7.325660
  C      3.304130  -12.917790    5.973650
  C      2.217180  -13.641480    5.480020
  C      1.371150  -12.768130    4.587930
  S      4.330540  -13.852640    6.960960
  C      3.309890  -15.273600    6.693530
  C      2.226690  -14.966840    5.869980
  C      1.005150   -5.037420    1.763660
  C      1.778950   -3.744300    1.800260
  C      2.935170   -3.889640    2.577450
  C      1.688040   -2.483330    1.254640
  C      2.770500   -1.656010    1.600680
  S      3.913110   -2.494710    2.639820
  C      1.412620  -13.378790    3.169950
  C     -0.053180  -12.568340    5.141100
  C     -0.414280   -4.947690    2.371570
  C      1.017510   -5.656640    0.348350
  C     -1.136610   -3.619870    2.176690
  C      0.217080   -4.909670   -0.708830
  C      0.654990  -12.614640    2.092630
  C     -0.914220  -13.824050    5.175230
  H      7.605330    1.342520    3.103470
  H      5.078180    4.580660    0.279320
  H      0.557320  -20.433560    5.433690
  H      4.138630  -21.709240    8.656580
  H      0.817810   -7.780610    2.668470
  H      4.811300   -5.235830    4.289080
  H      5.824200   -8.593150    3.485860
  H      6.369330   -7.117770    4.278270
  H      6.788130   -9.944350    5.350120
  H      7.986960   -8.911970    4.586550
  H      7.320700   -8.454870    6.147410
  H      5.555850   -6.630410    6.540650
  H      3.810260   -6.759920    6.717550
  H      5.784250   -8.871760    7.692650
  H      4.956030   -7.664360    8.666000
  H      4.026500   -8.923820    7.861160
  H      0.937940  -10.081620    3.522000
  H      5.002240  -10.669130    6.365610
  H      2.029010   -0.054570    0.511600
  H      4.608580  -16.311500    7.935910
  H      1.510760  -15.714180    5.584240
  H      0.894080   -2.117710    0.628860
  H      2.462760  -13.454300    2.874610
  H      1.020020  -14.394480    3.235590
  H      0.040450  -12.172460    6.156140
  H     -0.550430  -11.804720    4.541050
  H     -1.016850   -5.754330    1.949840
  H     -0.332340   -5.129450    3.446370
  H      2.060140   -5.721750    0.025160
  H      0.635470   -6.676920    0.426690
  H     -1.233780   -3.362460    1.127040
  H     -2.135350   -3.690090    2.602710
  H     -0.609410   -2.816170    2.684290
  H      0.572850   -3.889770   -0.820720
  H      0.331460   -5.412430   -1.666950
  H     -0.840880   -4.893400   -0.463300
  H      1.102530  -11.640410    1.916840
  H      0.697340  -13.175080    1.161130
  H     -0.390370  -12.483160    2.358240
  H     -1.062250  -14.231370    4.179120
  H     -0.465380  -14.589220    5.801520
  H     -1.890590  -13.579900    5.588380

 Total Charge           Charge          ....    0
 Multiplicity           Mult            ....    1
 Number of Electrons    NEL             ....  520
 Basis Dimension        Dim             .... 1240

ORBITAL ENERGIES
----------------

  NO   OCC          E(Eh)            E(eV)
   0   2.0000     -89.000355     -2421.8228
   1   2.0000     -88.995089     -2421.6795
   2   2.0000     -24.834017      -675.7679
   3   2.0000     -24.833723      -675.7599
   4   2.0000     -24.831963      -675.7121
   5   2.0000     -24.831940      -675.7115
   6   2.0000     -19.259858      -524.0874
   7   2.0000     -19.259682      -524.0826
   8   2.0000     -14.454174      -393.3181
   9   2.0000     -14.452928      -393.2842
  10   2.0000     -14.449606      -393.1938
  11   2.0000     -14.449396      -393.1881
  12   2.0000     -10.419667      -283.5335
  13   2.0000     -10.419351      -283.5250
  14   2.0000     -10.418999      -283.5154
  15   2.0000     -10.418742      -283.5084
  16   2.0000     -10.409395      -283.2541
  17   2.0000     -10.407263      -283.1960
  18   2.0000     -10.381890      -282.5056
  19   2.0000     -10.381757      -282.5020
  20   2.0000     -10.377598      -282.3888
  21   2.0000     -10.377444      -282.3846
  22   2.0000     -10.362383      -281.9748
  23   2.0000     -10.360805      -281.9318
  24   2.0000     -10.355494      -281.7873
  25   2.0000     -10.354510      -281.7605
  26   2.0000     -10.354045      -281.7479
  27   2.0000     -10.352346      -281.7017
  28   2.0000     -10.351133      -281.6686
  29   2.0000     -10.350919      -281.6628
  30   2.0000     -10.350798      -281.6595
  31   2.0000     -10.350787      -281.6592
  32   2.0000     -10.350755      -281.6584
  33   2.0000     -10.345385      -281.5123
  34   2.0000     -10.342601      -281.4365
  35   2.0000     -10.342425      -281.4317
  36   2.0000     -10.341981      -281.4196
  37   2.0000     -10.341852      -281.4161
  38   2.0000     -10.336084      -281.2591
  39   2.0000     -10.335918      -281.2546
  40   2.0000     -10.334287      -281.2102
  41   2.0000     -10.333421      -281.1867
  42   2.0000     -10.332689      -281.1668
  43   2.0000     -10.332106      -281.1509
  44   2.0000     -10.329659      -281.0843
  45   2.0000     -10.327932      -281.0373
  46   2.0000     -10.327084      -281.0143
  47   2.0000     -10.325895      -280.9819
  48   2.0000     -10.325263      -280.9647
  49   2.0000     -10.323940      -280.9287
  50   2.0000     -10.321802      -280.8705
  51   2.0000     -10.321742      -280.8689
  52   2.0000     -10.320952      -280.8474
  53   2.0000     -10.319930      -280.8196
  54   2.0000     -10.319534      -280.8088
  55   2.0000     -10.319477      -280.8072
  56   2.0000     -10.318956      -280.7931
  57   2.0000     -10.318349      -280.7765
  58   2.0000     -10.318067      -280.7689
  59   2.0000     -10.317550      -280.7548
  60   2.0000     -10.315652      -280.7032
  61   2.0000     -10.309538      -280.5368
  62   2.0000     -10.308950      -280.5208
  63   2.0000     -10.308825      -280.5174
  64   2.0000     -10.308744      -280.5152
  65   2.0000     -10.307189      -280.4729
  66   2.0000     -10.306829      -280.4631
  67   2.0000     -10.296117      -280.1716
  68   2.0000     -10.295454      -280.1536
  69   2.0000     -10.293924      -280.1119
  70   2.0000     -10.293505      -280.1005
  71   2.0000     -10.293038      -280.0878
  72   2.0000     -10.292052      -280.0610
  73   2.0000      -8.113909      -220.7907
  74   2.0000      -8.106829      -220.5980
  75   2.0000      -6.073184      -165.2597
  76   2.0000      -6.069265      -165.1531
  77   2.0000      -6.066471      -165.0771
  78   2.0000      -6.066353      -165.0738
  79   2.0000      -6.061852      -164.9514
  80   2.0000      -6.059391      -164.8844
  81   2.0000      -1.363351       -37.0987
  82   2.0000      -1.363162       -37.0935
  83   2.0000      -1.348289       -36.6888
  84   2.0000      -1.348113       -36.6840
  85   2.0000      -1.177936       -32.0533
  86   2.0000      -1.176858       -32.0239
  87   2.0000      -1.061281       -28.8789
  88   2.0000      -1.061178       -28.8761
  89   2.0000      -1.057253       -28.7693
  90   2.0000      -1.053608       -28.6701
  91   2.0000      -1.042751       -28.3747
  92   2.0000      -1.042257       -28.3612
  93   2.0000      -1.033551       -28.1244
  94   2.0000      -1.032752       -28.1026
  95   2.0000      -1.032079       -28.0843
  96   2.0000      -1.007452       -27.4142
  97   2.0000      -1.000134       -27.2150
  98   2.0000      -0.994574       -27.0637
  99   2.0000      -0.989305       -26.9204
 100   2.0000      -0.961675       -26.1685
 101   2.0000      -0.947896       -25.7936
 102   2.0000      -0.945380       -25.7251
 103   2.0000      -0.944579       -25.7033
 104   2.0000      -0.938322       -25.5330
 105   2.0000      -0.932741       -25.3812
 106   2.0000      -0.920109       -25.0374
 107   2.0000      -0.913170       -24.8486
 108   2.0000      -0.912826       -24.8393
 109   2.0000      -0.898617       -24.4526
 110   2.0000      -0.886146       -24.1133
 111   2.0000      -0.885784       -24.1034
 112   2.0000      -0.883733       -24.0476
 113   2.0000      -0.882014       -24.0008
 114   2.0000      -0.880139       -23.9498
 115   2.0000      -0.879589       -23.9348
 116   2.0000      -0.879029       -23.9196
 117   2.0000      -0.869933       -23.6721
 118   2.0000      -0.850351       -23.1392
 119   2.0000      -0.841809       -22.9068
 120   2.0000      -0.821696       -22.3595
 121   2.0000      -0.813147       -22.1269
 122   2.0000      -0.812682       -22.1142
 123   2.0000      -0.811749       -22.0888
 124   2.0000      -0.800770       -21.7901
 125   2.0000      -0.796458       -21.6727
 126   2.0000      -0.784201       -21.3392
 127   2.0000      -0.764960       -20.8156
 128   2.0000      -0.754715       -20.5368
 129   2.0000      -0.749143       -20.3852
 130   2.0000      -0.746327       -20.3086
 131   2.0000      -0.745149       -20.2765
 132   2.0000      -0.740194       -20.1417
 133   2.0000      -0.739228       -20.1154
 134   2.0000      -0.737565       -20.0702
 135   2.0000      -0.735812       -20.0225
 136   2.0000      -0.723333       -19.6829
 137   2.0000      -0.721630       -19.6366
 138   2.0000      -0.710461       -19.3326
 139   2.0000      -0.704502       -19.1705
 140   2.0000      -0.696839       -18.9620
 141   2.0000      -0.695549       -18.9269
 142   2.0000      -0.693219       -18.8635
 143   2.0000      -0.683772       -18.6064
 144   2.0000      -0.680247       -18.5105
 145   2.0000      -0.679415       -18.4878
 146   2.0000      -0.677413       -18.4334
 147   2.0000      -0.675489       -18.3810
 148   2.0000      -0.668596       -18.1934
 149   2.0000      -0.657989       -17.9048
 150   2.0000      -0.650719       -17.7070
 151   2.0000      -0.645431       -17.5631
 152   2.0000      -0.638894       -17.3852
 153   2.0000      -0.631372       -17.1805
 154   2.0000      -0.630077       -17.1453
 155   2.0000      -0.627266       -17.0688
 156   2.0000      -0.623798       -16.9744
 157   2.0000      -0.623687       -16.9714
 158   2.0000      -0.621582       -16.9141
 159   2.0000      -0.617081       -16.7916
 160   2.0000      -0.608217       -16.5504
 161   2.0000      -0.606164       -16.4946
 162   2.0000      -0.595282       -16.1984
 163   2.0000      -0.593441       -16.1484
 164   2.0000      -0.588760       -16.0210
 165   2.0000      -0.586952       -15.9718
 166   2.0000      -0.586129       -15.9494
 167   2.0000      -0.585700       -15.9377
 168   2.0000      -0.583640       -15.8817
 169   2.0000      -0.582699       -15.8560
 170   2.0000      -0.582563       -15.8523
 171   2.0000      -0.581454       -15.8222
 172   2.0000      -0.577688       -15.7197
 173   2.0000      -0.576705       -15.6929
 174   2.0000      -0.576504       -15.6875
 175   2.0000      -0.574858       -15.6427
 176   2.0000      -0.572412       -15.5761
 177   2.0000      -0.569153       -15.4875
 178   2.0000      -0.566043       -15.4028
 179   2.0000      -0.565324       -15.3832
 180   2.0000      -0.562921       -15.3179
 181   2.0000      -0.558661       -15.2020
 182   2.0000      -0.554233       -15.0815
 183   2.0000      -0.548750       -14.9323
 184   2.0000      -0.542431       -14.7603
 185   2.0000      -0.539205       -14.6725
 186   2.0000      -0.536503       -14.5990
 187   2.0000      -0.534556       -14.5460
 188   2.0000      -0.534003       -14.5309
 189   2.0000      -0.533107       -14.5066
 190   2.0000      -0.531139       -14.4530
 191   2.0000      -0.529811       -14.4169
 192   2.0000      -0.529769       -14.4157
 193   2.0000      -0.526011       -14.3135
 194   2.0000      -0.525264       -14.2932
 195   2.0000      -0.524575       -14.2744
 196   2.0000      -0.522511       -14.2182
 197   2.0000      -0.520520       -14.1641
 198   2.0000      -0.520059       -14.1515
 199   2.0000      -0.517132       -14.0719
 200   2.0000      -0.514631       -14.0038
 201   2.0000      -0.511913       -13.9299
 202   2.0000      -0.509838       -13.8734
 203   2.0000      -0.505617       -13.7585
 204   2.0000      -0.501729       -13.6527
 205   2.0000      -0.497849       -13.5472
 206   2.0000      -0.496032       -13.4977
 207   2.0000      -0.491081       -13.3630
 208   2.0000      -0.490816       -13.3558
 209   2.0000      -0.490192       -13.3388
 210   2.0000      -0.490029       -13.3344
 211   2.0000      -0.486994       -13.2518
 212   2.0000      -0.486234       -13.2311
 213   2.0000      -0.485372       -13.2076
 214   2.0000      -0.484775       -13.1914
 215   2.0000      -0.483473       -13.1560
 216   2.0000      -0.480399       -13.0723
 217   2.0000      -0.478734       -13.0270
 218   2.0000      -0.478233       -13.0134
 219   2.0000      -0.475790       -12.9469
 220   2.0000      -0.472312       -12.8523
 221   2.0000      -0.471567       -12.8320
 222   2.0000      -0.468791       -12.7565
 223   2.0000      -0.465789       -12.6748
 224   2.0000      -0.464117       -12.6293
 225   2.0000      -0.463629       -12.6160
 226   2.0000      -0.463204       -12.6044
 227   2.0000      -0.462551       -12.5866
 228   2.0000      -0.462184       -12.5767
 229   2.0000      -0.457176       -12.4404
 230   2.0000      -0.455606       -12.3977
 231   2.0000      -0.451506       -12.2861
 232   2.0000      -0.450302       -12.2533
 233   2.0000      -0.442980       -12.0541
 234   2.0000      -0.442545       -12.0423
 235   2.0000      -0.441310       -12.0086
 236   2.0000      -0.439131       -11.9494
 237   2.0000      -0.436530       -11.8786
 238   2.0000      -0.431515       -11.7421
 239   2.0000      -0.430045       -11.7021
 240   2.0000      -0.429023       -11.6743
 241   2.0000      -0.427580       -11.6351
 242   2.0000      -0.424264       -11.5448
 243   2.0000      -0.419242       -11.4082
 244   2.0000      -0.416517       -11.3340
 245   2.0000      -0.410457       -11.1691
 246   2.0000      -0.390974       -10.6389
 247   2.0000      -0.383565       -10.4373
 248   2.0000      -0.378768       -10.3068
 249   2.0000      -0.377034       -10.2596
 250   2.0000      -0.371425       -10.1070
 251   2.0000      -0.368903       -10.0383
 252   2.0000      -0.365169        -9.9368
 253   2.0000      -0.361610        -9.8399
 254   2.0000      -0.353740        -9.6258
 255   2.0000      -0.351279        -9.5588
 256   2.0000      -0.347130        -9.4459
 257   2.0000      -0.340057        -9.2534
 258   2.0000      -0.305810        -8.3215
 259   2.0000      -0.279423        -7.6035
 260   0.0000      -0.076747        -2.0884
 261   0.0000      -0.066550        -1.8109
 262   0.0000      -0.042573        -1.1585
 263   0.0000      -0.038923        -1.0591
 264   0.0000      -0.004406        -0.1199

MULLIKEN ATOMIC CHARGES
-----------------------
   0 C :    0.228696
   1 O :   -0.199216
   2 C :   -0.058805
   3 C :   -0.096357
   4 C :    0.242347
   5 F :   -0.183792
   6 C :    0.244183
   7 F :   -0.179729
   8 C :   -0.091202
   9 C :    0.028094
  10 C :    0.295682
  11 C :   -0.385482
  12 C :   -0.123626
  13 N :    0.095458
  14 C :   -0.134335
  15 N :    0.109291
  16 C :   -0.145731
  17 C :    0.226775
  18 O :   -0.187621
  19 C :   -0.054984
  20 C :   -0.095879
  21 C :    0.243536
  22 F :   -0.184498
  23 C :    0.244600
  24 F :   -0.180146
  25 C :   -0.087301
  26 C :    0.027710
  27 C :    0.277419
  28 C :   -0.380346
  29 C :   -0.130219
  30 N :    0.108165
  31 C :   -0.135658
  32 N :    0.110785
  33 C :   -0.143863
  34 C :    0.019446
  35 C :    0.019753
  36 C :   -0.087129
  37 C :    0.070223
  38 C :    0.008515
  39 C :   -0.080583
  40 C :   -0.219487
  41 C :    0.025282
  42 C :   -0.009536
  43 C :    0.025812
  44 C :   -0.028236
  45 C :    0.034032
  46 C :    0.068105
  47 C :   -0.111378
  48 C :    0.048769
  49 C :    0.017069
  50 C :   -0.102037
  51 C :    0.001991
  52 C :    0.071357
  53 C :   -0.031971
  54 C :    0.012347
  55 C :   -0.197166
  56 S :    0.170529
  57 C :   -0.152692
  58 C :   -0.008236
  59 C :   -0.203526
  60 C :    0.059634
  61 C :   -0.022118
  62 C :   -0.075097
  63 C :   -0.088040
  64 S :    0.209533
  65 C :    0.011423
  66 C :    0.017028
  67 C :    0.032294
  68 C :    0.030041
  69 C :   -0.029183
  70 C :   -0.009822
  71 C :   -0.010339
  72 C :   -0.014349
  73 H :    0.040926
  74 H :    0.045970
  75 H :    0.039483
  76 H :    0.045778
  77 H :   -0.018075
  78 H :   -0.006712
  79 H :    0.029967
  80 H :    0.022396
  81 H :    0.028391
  82 H :    0.040788
  83 H :    0.033000
  84 H :    0.025466
  85 H :    0.035933
  86 H :    0.023860
  87 H :    0.039686
  88 H :    0.047521
  89 H :   -0.015489
  90 H :   -0.014577
  91 H :    0.024854
  92 H :    0.025275
  93 H :    0.040308
  94 H :    0.031771
  95 H :    0.032090
  96 H :    0.037217
  97 H :    0.032273
  98 H :    0.025638
  99 H :    0.021649
 100 H :    0.036549
 101 H :    0.031990
 102 H :    0.020010
 103 H :    0.023865
 104 H :    0.039783
 105 H :    0.048866
 106 H :    0.026237
 107 H :    0.041024
 108 H :    0.035056
 109 H :    0.032150
 110 H :    0.041374
 111 H :    0.024014
 112 H :    0.028520
 113 H :    0.039908
 114 H :    0.039061
Sum of atomic charges:   -0.0000000

LOEWDIN ATOMIC CHARGES
----------------------
   0 C :    0.091138
   1 O :   -0.168649
   2 C :   -0.049569
   3 C :   -0.007674
   4 C :    0.074148
   5 F :   -0.050012
   6 C :    0.076794
   7 F :   -0.047777
   8 C :   -0.017850
   9 C :   -0.019237
  10 C :    0.082010
  11 C :   -0.151336
  12 C :   -0.014641
  13 N :   -0.058698
  14 C :   -0.014959
  15 N :   -0.054947
  16 C :   -0.133950
  17 C :    0.097320
  18 O :   -0.150817
  19 C :   -0.049673
  20 C :   -0.007844
  21 C :    0.074350
  22 F :   -0.050247
  23 C :    0.077234
  24 F :   -0.047769
  25 C :   -0.017945
  26 C :   -0.019828
  27 C :    0.080933
  28 C :   -0.149767
  29 C :   -0.019359
  30 N :   -0.053024
  31 C :   -0.014488
  32 N :   -0.054390
  33 C :   -0.123088
  34 C :   -0.042561
  35 C :    0.013659
  36 C :   -0.022809
  37 C :   -0.012868
  38 C :    0.003944
  39 C :   -0.013726
  40 C :   -0.039761
  41 C :   -0.014276
  42 C :   -0.061025
  43 C :   -0.017944
  44 C :   -0.059941
  45 C :    0.002232
  46 C :   -0.007863
  47 C :   -0.023955
  48 C :    0.014859
  49 C :   -0.042256
  50 C :   -0.015577
  51 C :    0.067193
  52 C :    0.058929
  53 C :   -0.143635
  54 C :   -0.048137
  55 C :   -0.037912
  56 S :    0.454889
  57 C :   -0.186719
  58 C :    0.001020
  59 C :   -0.038819
  60 C :   -0.052575
  61 C :   -0.148173
  62 C :   -0.007108
  63 C :   -0.195029
  64 S :    0.505734
  65 C :   -0.016157
  66 C :   -0.017580
  67 C :   -0.018368
  68 C :   -0.013503
  69 C :   -0.058556
  70 C :   -0.059932
  71 C :   -0.061565
  72 C :   -0.058923
  73 H :    0.055063
  74 H :    0.054032
  75 H :    0.054533
  76 H :    0.053932
  77 H :    0.027500
  78 H :    0.031405
  79 H :    0.029349
  80 H :    0.023239
  81 H :    0.022909
  82 H :    0.033106
  83 H :    0.024007
  84 H :    0.024572
  85 H :    0.031087
  86 H :    0.019213
  87 H :    0.031992
  88 H :    0.027145
  89 H :    0.026774
  90 H :    0.028457
  91 H :    0.051992
  92 H :    0.044379
  93 H :    0.033611
  94 H :    0.038219
  95 H :    0.031379
  96 H :    0.026446
  97 H :    0.031117
  98 H :    0.020672
  99 H :    0.023527
 100 H :    0.031029
 101 H :    0.029807
 102 H :    0.021650
 103 H :    0.020397
 104 H :    0.031751
 105 H :    0.027754
 106 H :    0.024012
 107 H :    0.032966
 108 H :    0.024413
 109 H :    0.024200
 110 H :    0.033241
 111 H :    0.022447
 112 H :    0.023965
 113 H :    0.028846
 114 H :    0.032267

  Mayer bond orders larger than 0.100000
B(  0-C ,  1-O ) :   2.1335 B(  0-C ,  2-C ) :   0.9663 B(  0-C , 16-C ) :   0.9869
B(  2-C ,  3-C ) :   1.3445 B(  2-C ,  9-C ) :   1.3446 B(  3-C ,  4-C ) :   1.3269
B(  3-C , 73-H ) :   1.0154 B(  4-C ,  5-F ) :   1.1000 B(  4-C ,  6-C ) :   1.2946
B(  6-C ,  7-F ) :   1.1145 B(  6-C ,  8-C ) :   1.3488 B(  8-C ,  9-C ) :   1.3364
B(  8-C , 74-H ) :   0.9881 B(  9-C , 10-C ) :   1.0132 B( 10-C , 11-C ) :   1.6285
B( 10-C , 16-C ) :   1.1069 B( 11-C , 12-C ) :   1.1348 B( 11-C , 14-C ) :   1.1332
B( 12-C , 13-N ) :   2.9538 B( 14-C , 15-N ) :   2.9729 B( 16-C , 51-C ) :   1.4940
B( 17-C , 18-O ) :   2.1382 B( 17-C , 19-C ) :   0.9668 B( 17-C , 33-C ) :   0.9598
B( 19-C , 20-C ) :   1.3416 B( 19-C , 26-C ) :   1.3485 B( 20-C , 21-C ) :   1.3294
B( 20-C , 75-H ) :   1.0159 B( 21-C , 22-F ) :   1.1007 B( 21-C , 23-C ) :   1.2910
B( 23-C , 24-F ) :   1.1145 B( 23-C , 25-C ) :   1.3517 B( 25-C , 26-C ) :   1.3325
B( 25-C , 76-H ) :   0.9887 B( 26-C , 27-C ) :   1.0114 B( 27-C , 28-C ) :   1.6328
B( 27-C , 33-C ) :   1.1053 B( 28-C , 29-C ) :   1.1283 B( 28-C , 31-C ) :   1.1318
B( 29-C , 30-N ) :   2.9657 B( 31-C , 32-N ) :   2.9748 B( 33-C , 52-C ) :   1.5764
B( 34-C , 35-C ) :   1.3776 B( 34-C , 39-C ) :   1.3251 B( 34-C , 61-C ) :   1.0801
B( 35-C , 36-C ) :   1.4253 B( 35-C , 59-C ) :   0.9380 B( 36-C , 37-C ) :   1.3350
B( 36-C , 77-H ) :   0.9942 B( 37-C , 38-C ) :   1.3844 B( 37-C , 46-C ) :   0.9993
B( 38-C , 39-C ) :   1.4113 B( 38-C , 40-C ) :   0.9442 B( 39-C , 78-H ) :   1.0006
B( 40-C , 41-C ) :   1.0038 B( 40-C , 43-C ) :   0.9838 B( 40-C , 45-C ) :   0.9301
B( 41-C , 42-C ) :   1.1045 B( 41-C , 79-H ) :   0.9481 B( 41-C , 80-H ) :   0.9423
B( 42-C , 81-H ) :   0.9663 B( 42-C , 82-H ) :   0.9646 B( 42-C , 83-H ) :   0.9616
B( 43-C , 44-C ) :   1.1155 B( 43-C , 84-H ) :   0.9437 B( 43-C , 85-H ) :   0.9479
B( 44-C , 86-H ) :   0.9648 B( 44-C , 87-H ) :   0.9647 B( 44-C , 88-H ) :   0.9598
B( 45-C , 46-C ) :   1.3914 B( 45-C , 50-C ) :   1.4037 B( 46-C , 47-C ) :   1.3378
B( 47-C , 48-C ) :   1.4214 B( 47-C , 89-H ) :   0.9905 B( 48-C , 49-C ) :   1.3851
B( 48-C , 55-C ) :   0.9267 B( 49-C , 50-C ) :   1.3222 B( 49-C , 53-C ) :   1.0761
B( 50-C , 90-H ) :   1.0006 B( 51-C , 63-C ) :   1.3118 B( 51-C , 91-H ) :   0.9404
B( 52-C , 57-C ) :   1.2688 B( 52-C , 92-H ) :   0.9115 B( 53-C , 54-C ) :   1.4726
B( 53-C , 56-S ) :   1.1573 B( 54-C , 55-C ) :   0.9426 B( 54-C , 58-C ) :   1.3545
B( 55-C , 65-C ) :   0.9943 B( 55-C , 66-C ) :   1.0025 B( 56-S , 57-C ) :   1.0795
B( 57-C , 58-C ) :   1.3834 B( 58-C , 93-H ) :   0.9707 B( 59-C , 60-C ) :   0.9330
B( 59-C , 67-C ) :   0.9887 B( 59-C , 68-C ) :   1.0098 B( 60-C , 61-C ) :   1.4490
B( 60-C , 62-C ) :   1.3695 B( 61-C , 64-S ) :   1.1275 B( 62-C , 63-C ) :   1.3226
B( 62-C , 94-H ) :   1.0121 B( 63-C , 64-S ) :   1.0712 B( 65-C , 71-C ) :   1.1030
B( 65-C , 95-H ) :   0.9451 B( 65-C , 96-H ) :   0.9477 B( 66-C , 72-C ) :   1.0985
B( 66-C , 97-H ) :   0.9459 B( 66-C , 98-H ) :   0.9450 B( 67-C , 69-C ) :   1.1172
B( 67-C , 99-H ) :   0.9433 B( 67-C ,100-H ) :   0.9462 B( 68-C , 70-C ) :   1.1022
B( 68-C ,101-H ) :   0.9480 B( 68-C ,102-H ) :   0.9418 B( 69-C ,103-H ) :   0.9674
B( 69-C ,104-H ) :   0.9664 B( 69-C ,105-H ) :   0.9591 B( 70-C ,106-H ) :   0.9683
B( 70-C ,107-H ) :   0.9655 B( 70-C ,108-H ) :   0.9616 B( 71-C ,109-H ) :   0.9633
B( 71-C ,110-H ) :   0.9665 B( 71-C ,111-H ) :   0.9651 B( 72-C ,112-H ) :   0.9648
B( 72-C ,113-H ) :   0.9670 B( 72-C ,114-H ) :   0.9668

-----------------------------------------------------------------------------
         ABSORPTION SPECTRUM VIA TRANSITION ELECTRIC DIPOLE MOMENTS
-----------------------------------------------------------------------------
State   Energy  Wavelength   fosc         T2         TX        TY        TZ
        (cm-1)    (nm)                  (au**2)     (au)      (au)      (au)
-----------------------------------------------------------------------------
   0   21029.2    475.5   3.905960591  61.14768   0.02492  -7.36222   2.63530
   1   26377.3    379.1   0.054883004   0.68499  -0.76978  -0.10596  -0.28496
   2   29870.3    334.8   0.073132029   0.80601  -0.53036  -0.72080  -0.07195
   3   30489.3    328.0   0.007856570   0.08483   0.05734  -0.28552  -0.00501
   4   35184.1    284.2   0.060759233   0.56851  -0.35673  -0.51465  -0.41999
   5   35540.6    281.4   0.445015185   4.12217  -1.62477  -0.55336  -1.08448
   6   36916.5    270.9   0.048485964   0.43239   0.40775  -0.51479   0.03348
   7   37919.4    263.7   0.113798177   0.98798  -0.35578   0.92790   0.02023
   8   39213.0    255.0   0.215813663   1.81186  -1.09974  -0.57029  -0.52650
   9   39713.3    251.8   0.455130316   3.77290   1.54727   0.40510   1.10216
  10   40030.4    249.8   0.140668008   1.15686  -0.21721  -0.99779   0.33777

Dispersion correction           -0.072270387
FINAL SINGLE POINT ENERGY     -3911.545121460173

DIPOLE MOMENT
-------------
                                X             Y             Z
Electronic contribution:     46.47779      -0.46255      17.42471
Nuclear contribution   :    -47.67451      -0.12801     -18.32183
                        -----------------------------------------
Total Dipole Moment    :     -1.19672      -0.59056      -0.89712
                        -----------------------------------------
Magnitude (a.u.)       :      1.60802
Magnitude (Debye)      :      4.08726

Rotational constants in cm-1:     0.002660     0.000216     0.000203
Rotational constants in MHz :    79.741355     6.481417     6.077877

                             ****ORCA TERMINATED NORMALLY****
TOTAL RUN TIME: 0 days 0 hours 16 minutes 51 seconds 719 msec
