                         Program Version 4.2.0 -  RELEASE  -
|  1> # ORCA input file
|  2> # SCF done       -208.124413193788          0.000320189777
|  3> ! wb97x-d3 def2-SVP def2/J RIJCOSX Grid4 TightSCF
|  4> %maxcore 5000
|  5> %tddft
|  6>     Mode sTDA
|  7>     Ethresh 5.0
|  8>     maxcore 5000
|  9> end
| 10>
| 11> %pal
| 12>   nprocs 6
| 13>   end
| 14> * xyz 0 1
| 15>    C        2.24601         4.76940        -0.41902
| 16>    C        2.91190         5.55906         0.51918
| 17>    C        1.57660         5.61734        -1.47097
| 18>    C        1.88714         6.99719        -0.94278
| 19>    C        2.69560         6.91526         0.20771
| 20>    C        2.28051         5.34491        -2.81998
| 21>    C        0.06641         5.34798        -1.55278
| 22>    C        1.55326         8.29182        -1.27211
| 23>    C        2.10736         9.23094        -0.39809
| 24>    S        3.07336         8.44258         0.86171
| 25>    C        2.02983        10.62557        -0.32136
| 26>    C        1.33875        11.55409        -1.06745
| 27>    C        1.37349        12.97933        -0.79188
| 28>    C        0.43732        13.63361        -1.70751
| 29>    C       -0.11935        12.65926        -2.54910
| 30>    C        0.42855        11.32835        -2.20449
| 31>    O        0.15091        10.29436        -2.77951
| 32>    C        2.14246        13.64176         0.13066
| 33>    C        2.11275        15.03973         0.32509
| 34>    N        2.14029        16.16664         0.54127
| 35>    C        3.08549        13.07132         1.01238
| 36>    N        3.87767        12.71009         1.76213
| 37>    C        0.05599        14.95945        -1.84458
| 38>    C       -0.87435        15.27198        -2.82480
| 39>    C       -1.41862        14.29545        -3.65878
| 40>    C       -1.04255        12.96879        -3.52785
| 41>    C        1.80521         6.21580        -3.97434
| 42>    C       -0.62639         5.46240        -0.19991
| 43>    F       -1.25807        16.54582        -2.96935
| 44>    F       -2.31388        14.64303        -4.59209
| 45>    S        3.71288         4.65449         1.76011
| 46>    C        3.13559         3.18005         1.03971
| 47>    C        2.38152         3.41909        -0.13217
| 48>    C        3.23970         1.82621         1.34116
| 49>    C        2.58893         1.04740         0.38188
| 50>    S        1.81660         1.95177        -0.87300
| 51>    C        3.88471         0.95494         2.39132
| 52>    C        3.53026        -0.41050         1.85836
| 53>    C        2.76167        -0.31839         0.70116
| 54>    C        3.21529         1.08803         3.77820
| 55>    C        5.40300         1.17851         2.46655
| 56>    C        6.11050         0.86583         1.15316
| 57>    C        3.41662         2.42482         4.47579
| 58>    C        3.70927        -1.73093         2.24822
| 59>    C        3.07258        -2.64891         1.38158
| 60>    S        2.26630        -1.84702         0.06040
| 61>    S        4.54104        -2.50967         3.55656
| 62>    C        4.03371        -4.04353         2.93546
| 63>    C        3.24640        -3.96820         1.78255
| 64>    C        4.24146        -5.39325         3.27972
| 65>    C        3.58849        -6.19604         2.32504
| 66>    C        2.85585        -5.34755         1.30966
| 67>    C        1.34561        -5.62615         1.48790
| 68>    C        3.31987        -5.60612        -0.13151
| 69>    C        4.83230        -5.50123        -0.28909
| 70>    C        0.41781        -4.79045         0.61798
| 71>    S        5.03789        -6.28563         4.49998
| 72>    C        4.49752        -7.78336         3.74642
| 73>    C        3.73519        -7.53360         2.58933
| 74>    C        4.73645        -9.08094         4.20047
| 75>    C        5.40435        -9.53294         5.31737
| 76>    C        5.55542       -10.91745         5.70972
| 77>    C        6.29631       -10.93500         6.97359
| 78>    C        6.60055        -9.61254         7.33698
| 79>    C        6.06117        -8.69001         6.31554
| 80>    O        6.15708        -7.47559         6.32484
| 81>    C        5.10286       -12.03173         5.04989
| 82>    C        5.29310       -13.35316         5.50661
| 83>    N        5.41063       -14.45096         5.82057
| 84>    C        4.39037       -12.03854         3.83277
| 85>    N        3.80816       -12.13457         2.84683
| 86>    C        6.69741       -11.98177         7.78814
| 87>    C        7.39455       -11.67492         8.94802
| 88>    C        7.69250       -10.35848         9.29857
| 89>    C        7.29523        -9.30580         8.48945
| 90>    F        7.78822       -12.67217         9.74852
| 91>    F        8.36726       -10.10890        10.42772
| 92>    H        3.35335         5.49868        -2.67671
| 93>    H        2.12514         4.29223        -3.06858
| 94>    H       -0.37738         6.06777        -2.24005
| 95>    H       -0.08387         4.34435        -1.95668
| 96>    H        0.92213         8.59048        -2.08844
| 97>    H        2.61147        11.03123         0.49764
| 98>    H        0.44297        15.75339        -1.22786
| 99>    H       -1.45996        12.20819        -4.16816
|100>    H        1.94861         7.26928        -3.75248
|101>    H        2.38035         5.97475        -4.86536
|102>    H        0.75579         6.04354        -4.19461
|103>    H       -0.48482         6.45482         0.22219
|104>    H       -1.69329         5.28882        -0.31456
|105>    H       -0.23545         4.73024         0.50337
|106>    H        2.14438         0.90775         3.65271
|107>    H        3.61525         0.28970         4.40801
|108>    H        5.58635         2.22065         2.73083
|109>    H        5.80547         0.54344         3.25808
|110>    H        5.71926         1.48188         0.34634
|111>    H        7.17472         1.06464         1.24971
|112>    H        5.98164        -0.17909         0.88030
|113>    H        3.01314         3.24120         3.88452
|114>    H        2.89688         2.41069         5.43086
|115>    H        4.46788         2.61837         4.66711
|116>    H        1.18214        -6.68438         1.27433
|117>    H        1.09579        -5.45843         2.53875
|118>    H        2.99036        -6.60320        -0.42851
|119>    H        2.84205        -4.87643        -0.78688
|120>    H        5.33934        -6.23423         0.33392
|121>    H        5.11063        -5.67989        -1.32462
|122>    H        5.18245        -4.51059        -0.00702
|123>    H        0.60619        -4.95684        -0.43866
|124>    H       -0.61295        -5.06870         0.82489
|125>    H        0.52948        -3.73136         0.82987
|126>    H        3.32728        -8.33661         2.00119
|127>    H        4.30117        -9.83872         3.56062
|128>    H        6.49317       -13.01586         7.56495
|129>    H        7.52241        -8.28603         8.75621
|130> *
|131>
|132>                          ****END OF INPUT****

CARTESIAN COORDINATES (ANGSTROEM)
---------------------------------
  C      2.246010    4.769400   -0.419020
  C      2.911900    5.559060    0.519180
  C      1.576600    5.617340   -1.470970
  C      1.887140    6.997190   -0.942780
  C      2.695600    6.915260    0.207710
  C      2.280510    5.344910   -2.819980
  C      0.066410    5.347980   -1.552780
  C      1.553260    8.291820   -1.272110
  C      2.107360    9.230940   -0.398090
  S      3.073360    8.442580    0.861710
  C      2.029830   10.625570   -0.321360
  C      1.338750   11.554090   -1.067450
  C      1.373490   12.979330   -0.791880
  C      0.437320   13.633610   -1.707510
  C     -0.119350   12.659260   -2.549100
  C      0.428550   11.328350   -2.204490
  O      0.150910   10.294360   -2.779510
  C      2.142460   13.641760    0.130660
  C      2.112750   15.039730    0.325090
  N      2.140290   16.166640    0.541270
  C      3.085490   13.071320    1.012380
  N      3.877670   12.710090    1.762130
  C      0.055990   14.959450   -1.844580
  C     -0.874350   15.271980   -2.824800
  C     -1.418620   14.295450   -3.658780
  C     -1.042550   12.968790   -3.527850
  C      1.805210    6.215800   -3.974340
  C     -0.626390    5.462400   -0.199910
  F     -1.258070   16.545820   -2.969350
  F     -2.313880   14.643030   -4.592090
  S      3.712880    4.654490    1.760110
  C      3.135590    3.180050    1.039710
  C      2.381520    3.419090   -0.132170
  C      3.239700    1.826210    1.341160
  C      2.588930    1.047400    0.381880
  S      1.816600    1.951770   -0.873000
  C      3.884710    0.954940    2.391320
  C      3.530260   -0.410500    1.858360
  C      2.761670   -0.318390    0.701160
  C      3.215290    1.088030    3.778200
  C      5.403000    1.178510    2.466550
  C      6.110500    0.865830    1.153160
  C      3.416620    2.424820    4.475790
  C      3.709270   -1.730930    2.248220
  C      3.072580   -2.648910    1.381580
  S      2.266300   -1.847020    0.060400
  S      4.541040   -2.509670    3.556560
  C      4.033710   -4.043530    2.935460
  C      3.246400   -3.968200    1.782550
  C      4.241460   -5.393250    3.279720
  C      3.588490   -6.196040    2.325040
  C      2.855850   -5.347550    1.309660
  C      1.345610   -5.626150    1.487900
  C      3.319870   -5.606120   -0.131510
  C      4.832300   -5.501230   -0.289090
  C      0.417810   -4.790450    0.617980
  S      5.037890   -6.285630    4.499980
  C      4.497520   -7.783360    3.746420
  C      3.735190   -7.533600    2.589330
  C      4.736450   -9.080940    4.200470
  C      5.404350   -9.532940    5.317370
  C      5.555420  -10.917450    5.709720
  C      6.296310  -10.935000    6.973590
  C      6.600550   -9.612540    7.336980
  C      6.061170   -8.690010    6.315540
  O      6.157080   -7.475590    6.324840
  C      5.102860  -12.031730    5.049890
  C      5.293100  -13.353160    5.506610
  N      5.410630  -14.450960    5.820570
  C      4.390370  -12.038540    3.832770
  N      3.808160  -12.134570    2.846830
  C      6.697410  -11.981770    7.788140
  C      7.394550  -11.674920    8.948020
  C      7.692500  -10.358480    9.298570
  C      7.295230   -9.305800    8.489450
  F      7.788220  -12.672170    9.748520
  F      8.367260  -10.108900   10.427720
  H      3.353350    5.498680   -2.676710
  H      2.125140    4.292230   -3.068580
  H     -0.377380    6.067770   -2.240050
  H     -0.083870    4.344350   -1.956680
  H      0.922130    8.590480   -2.088440
  H      2.611470   11.031230    0.497640
  H      0.442970   15.753390   -1.227860
  H     -1.459960   12.208190   -4.168160
  H      1.948610    7.269280   -3.752480
  H      2.380350    5.974750   -4.865360
  H      0.755790    6.043540   -4.194610
  H     -0.484820    6.454820    0.222190
  H     -1.693290    5.288820   -0.314560
  H     -0.235450    4.730240    0.503370
  H      2.144380    0.907750    3.652710
  H      3.615250    0.289700    4.408010
  H      5.586350    2.220650    2.730830
  H      5.805470    0.543440    3.258080
  H      5.719260    1.481880    0.346340
  H      7.174720    1.064640    1.249710
  H      5.981640   -0.179090    0.880300
  H      3.013140    3.241200    3.884520
  H      2.896880    2.410690    5.430860
  H      4.467880    2.618370    4.667110
  H      1.182140   -6.684380    1.274330
  H      1.095790   -5.458430    2.538750
  H      2.990360   -6.603200   -0.428510
  H      2.842050   -4.876430   -0.786880
  H      5.339340   -6.234230    0.333920
  H      5.110630   -5.679890   -1.324620
  H      5.182450   -4.510590   -0.007020
  H      0.606190   -4.956840   -0.438660
  H     -0.612950   -5.068700    0.824890
  H      0.529480   -3.731360    0.829870
  H      3.327280   -8.336610    2.001190
  H      4.301170   -9.838720    3.560620
  H      6.493170  -13.015860    7.564950
  H      7.522410   -8.286030    8.756210

 Total Charge           Charge          ....    0
 Multiplicity           Mult            ....    1
 Number of Electrons    NEL             ....  580
 Basis Dimension        Dim             .... 1292

ORBITAL ENERGIES
----------------

  NO   OCC          E(Eh)            E(eV)
   0   2.0000     -89.007826     -2422.0261
   1   2.0000     -89.007148     -2422.0076
   2   2.0000     -89.007000     -2422.0036
   3   2.0000     -89.005588     -2421.9652
   4   2.0000     -89.004163     -2421.9264
   5   2.0000     -88.998321     -2421.7674
   6   2.0000     -24.832623      -675.7300
   7   2.0000     -24.832547      -675.7280
   8   2.0000     -24.830851      -675.6818
   9   2.0000     -24.830421      -675.6701
  10   2.0000     -19.258701      -524.0559
  11   2.0000     -19.257646      -524.0272
  12   2.0000     -14.452717      -393.2784
  13   2.0000     -14.451230      -393.2380
  14   2.0000     -14.447875      -393.1467
  15   2.0000     -14.447104      -393.1257
  16   2.0000     -10.418040      -283.4893
  17   2.0000     -10.417924      -283.4861
  18   2.0000     -10.417453      -283.4733
  19   2.0000     -10.417191      -283.4662
  20   2.0000     -10.407231      -283.1951
  21   2.0000     -10.405881      -283.1584
  22   2.0000     -10.380145      -282.4581
  23   2.0000     -10.379668      -282.4451
  24   2.0000     -10.375346      -282.3275
  25   2.0000     -10.374903      -282.3155
  26   2.0000     -10.368092      -282.1301
  27   2.0000     -10.361536      -281.9517
  28   2.0000     -10.361218      -281.9431
  29   2.0000     -10.360293      -281.9179
  30   2.0000     -10.359291      -281.8906
  31   2.0000     -10.358997      -281.8826
  32   2.0000     -10.358934      -281.8809
  33   2.0000     -10.357032      -281.8292
  34   2.0000     -10.356297      -281.8092
  35   2.0000     -10.356032      -281.8019
  36   2.0000     -10.355507      -281.7877
  37   2.0000     -10.354528      -281.7610
  38   2.0000     -10.354227      -281.7528
  39   2.0000     -10.352794      -281.7138
  40   2.0000     -10.352512      -281.7062
  41   2.0000     -10.351742      -281.6852
  42   2.0000     -10.349505      -281.6243
  43   2.0000     -10.349351      -281.6202
  44   2.0000     -10.348867      -281.6070
  45   2.0000     -10.348761      -281.6041
  46   2.0000     -10.345446      -281.5139
  47   2.0000     -10.342512      -281.4341
  48   2.0000     -10.342176      -281.4249
  49   2.0000     -10.341407      -281.4040
  50   2.0000     -10.340715      -281.3852
  51   2.0000     -10.340628      -281.3828
  52   2.0000     -10.340034      -281.3666
  53   2.0000     -10.339008      -281.3387
  54   2.0000     -10.338922      -281.3364
  55   2.0000     -10.336081      -281.2591
  56   2.0000     -10.334809      -281.2244
  57   2.0000     -10.334254      -281.2093
  58   2.0000     -10.333937      -281.2007
  59   2.0000     -10.332217      -281.1539
  60   2.0000     -10.330440      -281.1056
  61   2.0000     -10.328176      -281.0439
  62   2.0000     -10.327370      -281.0220
  63   2.0000     -10.324329      -280.9393
  64   2.0000     -10.321756      -280.8693
  65   2.0000     -10.316695      -280.7316
  66   2.0000     -10.316555      -280.7277
  67   2.0000     -10.314574      -280.6738
  68   2.0000     -10.314554      -280.6733
  69   2.0000     -10.314368      -280.6682
  70   2.0000     -10.313734      -280.6510
  71   2.0000     -10.297549      -280.2106
  72   2.0000     -10.296954      -280.1944
  73   2.0000     -10.294815      -280.1362
  74   2.0000     -10.294582      -280.1298
  75   2.0000     -10.293143      -280.0907
  76   2.0000     -10.293025      -280.0875
  77   2.0000      -8.120634      -220.9737
  78   2.0000      -8.119577      -220.9449
  79   2.0000      -8.119462      -220.9418
  80   2.0000      -8.118409      -220.9131
  81   2.0000      -8.117651      -220.8925
  82   2.0000      -8.109755      -220.6777
  83   2.0000      -6.080484      -165.4584
  84   2.0000      -6.079495      -165.4315
  85   2.0000      -6.079379      -165.4283
  86   2.0000      -6.078217      -165.3967
  87   2.0000      -6.077052      -165.3650
  88   2.0000      -6.076362      -165.3462
  89   2.0000      -6.075345      -165.3185
  90   2.0000      -6.075206      -165.3148
  91   2.0000      -6.074114      -165.2851
  92   2.0000      -6.072999      -165.2547
  93   2.0000      -6.072360      -165.2373
  94   2.0000      -6.071250      -165.2071
  95   2.0000      -6.071131      -165.2039
  96   2.0000      -6.070198      -165.1785
  97   2.0000      -6.070061      -165.1748
  98   2.0000      -6.069529      -165.1603
  99   2.0000      -6.064772      -165.0308
 100   2.0000      -6.062065      -164.9572
 101   2.0000      -1.362051       -37.0633
 102   2.0000      -1.361790       -37.0562
 103   2.0000      -1.346981       -36.6532
 104   2.0000      -1.346708       -36.6458
 105   2.0000      -1.176850       -32.0237
 106   2.0000      -1.174652       -31.9639
 107   2.0000      -1.082571       -29.4583
 108   2.0000      -1.073726       -29.2176
 109   2.0000      -1.060415       -28.8554
 110   2.0000      -1.059363       -28.8267
 111   2.0000      -1.058488       -28.8029
 112   2.0000      -1.042772       -28.3753
 113   2.0000      -1.041316       -28.3356
 114   2.0000      -1.040463       -28.3124
 115   2.0000      -1.031269       -28.0623
 116   2.0000      -1.030264       -28.0349
 117   2.0000      -1.021840       -27.8057
 118   2.0000      -1.001958       -27.2647
 119   2.0000      -0.995569       -27.0908
 120   2.0000      -0.991684       -26.9851
 121   2.0000      -0.980054       -26.6686
 122   2.0000      -0.976289       -26.5662
 123   2.0000      -0.973044       -26.4779
 124   2.0000      -0.944219       -25.6935
 125   2.0000      -0.942832       -25.6558
 126   2.0000      -0.934572       -25.4310
 127   2.0000      -0.931599       -25.3501
 128   2.0000      -0.913184       -24.8490
 129   2.0000      -0.911885       -24.8137
 130   2.0000      -0.911192       -24.7948
 131   2.0000      -0.909265       -24.7423
 132   2.0000      -0.905792       -24.6479
 133   2.0000      -0.889116       -24.1941
 134   2.0000      -0.888459       -24.1762
 135   2.0000      -0.886806       -24.1312
 136   2.0000      -0.886399       -24.1201
 137   2.0000      -0.885059       -24.0837
 138   2.0000      -0.881811       -23.9953
 139   2.0000      -0.868448       -23.6317
 140   2.0000      -0.859786       -23.3960
 141   2.0000      -0.856412       -23.3042
 142   2.0000      -0.843727       -22.9590
 143   2.0000      -0.826086       -22.4789
 144   2.0000      -0.813588       -22.1389
 145   2.0000      -0.811286       -22.0762
 146   2.0000      -0.810582       -22.0571
 147   2.0000      -0.809025       -22.0147
 148   2.0000      -0.807342       -21.9689
 149   2.0000      -0.792193       -21.5567
 150   2.0000      -0.781074       -21.2541
 151   2.0000      -0.756022       -20.5724
 152   2.0000      -0.747188       -20.3320
 153   2.0000      -0.745763       -20.2933
 154   2.0000      -0.744264       -20.2525
 155   2.0000      -0.742986       -20.2177
 156   2.0000      -0.742649       -20.2085
 157   2.0000      -0.740162       -20.1408
 158   2.0000      -0.733182       -19.9509
 159   2.0000      -0.729524       -19.8514
 160   2.0000      -0.725812       -19.7503
 161   2.0000      -0.724535       -19.7156
 162   2.0000      -0.712188       -19.3796
 163   2.0000      -0.701125       -19.0786
 164   2.0000      -0.697487       -18.9796
 165   2.0000      -0.689838       -18.7715
 166   2.0000      -0.687827       -18.7167
 167   2.0000      -0.680796       -18.5254
 168   2.0000      -0.678970       -18.4757
 169   2.0000      -0.676909       -18.4196
 170   2.0000      -0.673829       -18.3358
 171   2.0000      -0.669542       -18.2192
 172   2.0000      -0.666770       -18.1437
 173   2.0000      -0.657700       -17.8969
 174   2.0000      -0.651928       -17.7399
 175   2.0000      -0.648689       -17.6517
 176   2.0000      -0.645021       -17.5519
 177   2.0000      -0.643686       -17.5156
 178   2.0000      -0.629543       -17.1307
 179   2.0000      -0.628468       -17.1015
 180   2.0000      -0.624385       -16.9904
 181   2.0000      -0.622580       -16.9413
 182   2.0000      -0.622253       -16.9324
 183   2.0000      -0.620043       -16.8722
 184   2.0000      -0.610019       -16.5995
 185   2.0000      -0.603098       -16.4111
 186   2.0000      -0.601516       -16.3681
 187   2.0000      -0.595723       -16.2105
 188   2.0000      -0.591400       -16.0928
 189   2.0000      -0.590263       -16.0619
 190   2.0000      -0.588577       -16.0160
 191   2.0000      -0.585590       -15.9347
 192   2.0000      -0.584648       -15.9091
 193   2.0000      -0.582313       -15.8455
 194   2.0000      -0.581564       -15.8252
 195   2.0000      -0.581230       -15.8161
 196   2.0000      -0.578012       -15.7285
 197   2.0000      -0.576356       -15.6834
 198   2.0000      -0.575852       -15.6697
 199   2.0000      -0.575006       -15.6467
 200   2.0000      -0.573486       -15.6053
 201   2.0000      -0.572097       -15.5676
 202   2.0000      -0.570503       -15.5242
 203   2.0000      -0.568730       -15.4759
 204   2.0000      -0.566623       -15.4186
 205   2.0000      -0.563690       -15.3388
 206   2.0000      -0.560940       -15.2640
 207   2.0000      -0.559446       -15.2233
 208   2.0000      -0.552521       -15.0349
 209   2.0000      -0.550099       -14.9690
 210   2.0000      -0.546620       -14.8743
 211   2.0000      -0.545395       -14.8410
 212   2.0000      -0.543388       -14.7863
 213   2.0000      -0.537062       -14.6142
 214   2.0000      -0.533435       -14.5155
 215   2.0000      -0.532786       -14.4978
 216   2.0000      -0.531790       -14.4707
 217   2.0000      -0.529321       -14.4036
 218   2.0000      -0.528522       -14.3818
 219   2.0000      -0.527707       -14.3596
 220   2.0000      -0.526232       -14.3195
 221   2.0000      -0.524266       -14.2660
 222   2.0000      -0.522799       -14.2261
 223   2.0000      -0.520757       -14.1705
 224   2.0000      -0.518896       -14.1199
 225   2.0000      -0.515247       -14.0206
 226   2.0000      -0.512354       -13.9419
 227   2.0000      -0.508808       -13.8454
 228   2.0000      -0.504598       -13.7308
 229   2.0000      -0.499743       -13.5987
 230   2.0000      -0.498189       -13.5564
 231   2.0000      -0.495402       -13.4806
 232   2.0000      -0.492793       -13.4096
 233   2.0000      -0.491696       -13.3797
 234   2.0000      -0.490647       -13.3512
 235   2.0000      -0.489219       -13.3123
 236   2.0000      -0.488788       -13.3006
 237   2.0000      -0.488355       -13.2888
 238   2.0000      -0.487103       -13.2547
 239   2.0000      -0.485706       -13.2167
 240   2.0000      -0.484993       -13.1973
 241   2.0000      -0.482922       -13.1410
 242   2.0000      -0.482079       -13.1180
 243   2.0000      -0.481501       -13.1023
 244   2.0000      -0.479282       -13.0419
 245   2.0000      -0.477457       -12.9923
 246   2.0000      -0.477187       -12.9849
 247   2.0000      -0.473815       -12.8932
 248   2.0000      -0.472562       -12.8591
 249   2.0000      -0.471254       -12.8235
 250   2.0000      -0.469077       -12.7642
 251   2.0000      -0.464581       -12.6419
 252   2.0000      -0.463466       -12.6115
 253   2.0000      -0.462247       -12.5784
 254   2.0000      -0.461004       -12.5445
 255   2.0000      -0.460707       -12.5365
 256   2.0000      -0.459592       -12.5061
 257   2.0000      -0.455735       -12.4012
 258   2.0000      -0.453749       -12.3471
 259   2.0000      -0.452189       -12.3047
 260   2.0000      -0.448166       -12.1952
 261   2.0000      -0.447432       -12.1752
 262   2.0000      -0.444919       -12.1069
 263   2.0000      -0.443440       -12.0666
 264   2.0000      -0.442739       -12.0475
 265   2.0000      -0.442094       -12.0300
 266   2.0000      -0.440915       -11.9979
 267   2.0000      -0.440094       -11.9756
 268   2.0000      -0.438648       -11.9362
 269   2.0000      -0.435765       -11.8578
 270   2.0000      -0.433232       -11.7888
 271   2.0000      -0.431857       -11.7514
 272   2.0000      -0.417296       -11.3552
 273   2.0000      -0.414034       -11.2664
 274   2.0000      -0.402555       -10.9541
 275   2.0000      -0.392022       -10.6675
 276   2.0000      -0.384149       -10.4532
 277   2.0000      -0.379976       -10.3397
 278   2.0000      -0.375710       -10.2236
 279   2.0000      -0.371555       -10.1105
 280   2.0000      -0.370879       -10.0921
 281   2.0000      -0.368618       -10.0306
 282   2.0000      -0.365565        -9.9475
 283   2.0000      -0.349440        -9.5087
 284   2.0000      -0.346085        -9.4175
 285   2.0000      -0.345142        -9.3918
 286   2.0000      -0.339372        -9.2348
 287   2.0000      -0.327197        -8.9035
 288   2.0000      -0.294321        -8.0089
 289   2.0000      -0.260851        -7.0981
 290   0.0000      -0.081186        -2.2092
 291   0.0000      -0.067644        -1.8407
 292   0.0000      -0.043562        -1.1854
 293   0.0000      -0.038879        -1.0580
 294   0.0000      -0.018048        -0.4911

MULLIKEN ATOMIC CHARGES
-----------------------
   0 C :   -0.065952
   1 C :   -0.091370
   2 C :   -0.204954
   3 C :   -0.025928
   4 C :   -0.055608
   5 C :    0.037789
   6 C :    0.013399
   7 C :    0.003634
   8 C :   -0.162748
   9 S :    0.178730
  10 C :    0.071450
  11 C :   -0.147841
  12 C :    0.283581
  13 C :    0.026396
  14 C :   -0.055011
  15 C :    0.224456
  16 O :   -0.194420
  17 C :   -0.385434
  18 C :   -0.133578
  19 N :    0.107832
  20 C :   -0.123470
  21 N :    0.098318
  22 C :   -0.082242
  23 C :    0.242039
  24 C :    0.240212
  25 C :   -0.095812
  26 C :   -0.014711
  27 C :   -0.017517
  28 F :   -0.180820
  29 F :   -0.185248
  30 S :    0.196654
  31 C :   -0.061993
  32 C :   -0.064970
  33 C :   -0.077100
  34 C :   -0.087263
  35 S :    0.193070
  36 C :   -0.223151
  37 C :   -0.079303
  38 C :   -0.082493
  39 C :    0.039202
  40 C :    0.015723
  41 C :   -0.015908
  42 C :   -0.015094
  43 C :   -0.059119
  44 C :   -0.072227
  45 S :    0.191195
  46 S :    0.197904
  47 C :   -0.092816
  48 C :   -0.061721
  49 C :   -0.043108
  50 C :    0.017686
  51 C :   -0.206396
  52 C :    0.041289
  53 C :    0.016547
  54 C :   -0.016107
  55 C :   -0.024748
  56 S :    0.217220
  57 C :   -0.094242
  58 C :   -0.049017
  59 C :    0.003760
  60 C :   -0.153903
  61 C :    0.295352
  62 C :    0.026085
  63 C :   -0.056674
  64 C :    0.232009
  65 O :   -0.206026
  66 C :   -0.384111
  67 C :   -0.132280
  68 N :    0.105209
  69 C :   -0.125509
  70 N :    0.094337
  71 C :   -0.091932
  72 C :    0.245377
  73 C :    0.243866
  74 C :   -0.098014
  75 F :   -0.180153
  76 F :   -0.184480
  77 H :    0.034835
  78 H :    0.020787
  79 H :    0.046155
  80 H :    0.023645
  81 H :    0.043013
  82 H :    0.022522
  83 H :    0.044550
  84 H :    0.039654
  85 H :    0.041861
  86 H :    0.041584
  87 H :    0.032330
  88 H :    0.040870
  89 H :    0.040143
  90 H :    0.038777
  91 H :    0.036479
  92 H :    0.022260
  93 H :    0.034933
  94 H :    0.029370
  95 H :    0.040477
  96 H :    0.041152
  97 H :    0.041318
  98 H :    0.031291
  99 H :    0.044165
 100 H :    0.034072
 101 H :    0.028814
 102 H :    0.034231
 103 H :    0.031602
 104 H :    0.030828
 105 H :    0.041981
 106 H :    0.039020
 107 H :    0.037763
 108 H :    0.033051
 109 H :    0.043993
 110 H :    0.034561
 111 H :    0.028839
 112 H :    0.026622
 113 H :    0.044829
 114 H :    0.039823
Sum of atomic charges:   -0.0000000

LOEWDIN ATOMIC CHARGES
----------------------
   0 C :   -0.026446
   1 C :   -0.206334
   2 C :   -0.038194
   3 C :   -0.051390
   4 C :   -0.156422
   5 C :   -0.011101
   6 C :   -0.016971
   7 C :    0.000596
   8 C :   -0.189923
   9 S :    0.457480
  10 C :    0.055227
  11 C :   -0.127559
  12 C :    0.081178
  13 C :   -0.019632
  14 C :   -0.049759
  15 C :    0.096782
  16 O :   -0.155274
  17 C :   -0.152309
  18 C :   -0.014432
  19 N :   -0.056560
  20 C :   -0.018582
  21 N :   -0.055501
  22 C :   -0.018003
  23 C :    0.076548
  24 C :    0.073658
  25 C :   -0.008601
  26 C :   -0.058818
  27 C :   -0.057411
  28 F :   -0.048447
  29 F :   -0.050854
  30 S :    0.436611
  31 C :   -0.180178
  32 C :   -0.200100
  33 C :   -0.054725
  34 C :   -0.180787
  35 S :    0.425898
  36 C :   -0.036493
  37 C :   -0.050947
  38 C :   -0.186587
  39 C :   -0.011573
  40 C :   -0.016478
  41 C :   -0.056723
  42 C :   -0.063992
  43 C :   -0.183163
  44 C :   -0.196971
  45 S :    0.432004
  46 S :    0.429914
  47 C :   -0.200575
  48 C :   -0.031222
  49 C :   -0.166883
  50 C :   -0.050482
  51 C :   -0.038152
  52 C :   -0.011661
  53 C :   -0.017422
  54 C :   -0.057101
  55 C :   -0.065734
  56 S :    0.505316
  57 C :   -0.194721
  58 C :   -0.005065
  59 C :    0.063967
  60 C :   -0.137385
  61 C :    0.081879
  62 C :   -0.018861
  63 C :   -0.049416
  64 C :    0.091646
  65 O :   -0.172207
  66 C :   -0.153391
  67 C :   -0.014918
  68 N :   -0.056781
  69 C :   -0.014371
  70 N :   -0.060737
  71 C :   -0.017924
  72 C :    0.076421
  73 C :    0.073619
  74 C :   -0.007665
  75 F :   -0.048176
  76 F :   -0.050423
  77 H :    0.030945
  78 H :    0.020456
  79 H :    0.029781
  80 H :    0.022150
  81 H :    0.035878
  82 H :    0.043988
  83 H :    0.053749
  84 H :    0.054322
  85 H :    0.029482
  86 H :    0.033141
  87 H :    0.025286
  88 H :    0.028292
  89 H :    0.030543
  90 H :    0.026203
  91 H :    0.031889
  92 H :    0.020020
  93 H :    0.023282
  94 H :    0.024957
  95 H :    0.028226
  96 H :    0.030892
  97 H :    0.027503
  98 H :    0.013078
  99 H :    0.034931
 100 H :    0.024925
 101 H :    0.025661
 102 H :    0.031075
 103 H :    0.027486
 104 H :    0.021366
 105 H :    0.027719
 106 H :    0.030125
 107 H :    0.027187
 108 H :    0.024065
 109 H :    0.034397
 110 H :    0.014328
 111 H :    0.041875
 112 H :    0.051890
 113 H :    0.053811
 114 H :    0.054861

  Mayer bond orders larger than 0.100000
B(  0-C ,  1-C ) :   1.5592 B(  0-C ,  2-C ) :   0.9467 B(  0-C , 32-C ) :   1.4185
B(  1-C ,  4-C ) :   1.2446 B(  1-C , 30-S ) :   1.0326 B(  2-C ,  3-C ) :   0.9071
B(  2-C ,  5-C ) :   1.0127 B(  2-C ,  6-C ) :   1.0295 B(  3-C ,  4-C ) :   1.4411
B(  3-C ,  7-C ) :   1.3900 B(  4-C ,  9-S ) :   1.1484 B(  5-C , 26-C ) :   1.0997
B(  5-C , 77-H ) :   0.9466 B(  5-C , 78-H ) :   0.9430 B(  6-C , 27-C ) :   1.0867
B(  6-C , 79-H ) :   0.9455 B(  6-C , 80-H ) :   0.9482 B(  7-C ,  8-C ) :   1.3567
B(  7-C , 81-H ) :   0.9719 B(  8-C ,  9-S ) :   1.0695 B(  8-C , 10-C ) :   1.2964
B( 10-C , 11-C ) :   1.5592 B( 10-C , 82-H ) :   0.9061 B( 11-C , 12-C ) :   1.1143
B( 11-C , 15-C ) :   0.9642 B( 12-C , 13-C ) :   1.0093 B( 12-C , 17-C ) :   1.6244
B( 13-C , 14-C ) :   1.3480 B( 13-C , 22-C ) :   1.3341 B( 14-C , 15-C ) :   0.9665
B( 14-C , 25-C ) :   1.3436 B( 15-C , 16-O ) :   2.1313 B( 17-C , 18-C ) :   1.1326
B( 17-C , 20-C ) :   1.1288 B( 18-C , 19-N ) :   2.9716 B( 20-C , 21-N ) :   2.9538
B( 22-C , 23-C ) :   1.3502 B( 22-C , 83-H ) :   0.9878 B( 23-C , 24-C ) :   1.2948
B( 23-C , 28-F ) :   1.1139 B( 24-C , 25-C ) :   1.3288 B( 24-C , 29-F ) :   1.0995
B( 25-C , 84-H ) :   1.0147 B( 26-C , 85-H ) :   0.9672 B( 26-C , 86-H ) :   0.9664
B( 26-C , 87-H ) :   0.9665 B( 27-C , 88-H ) :   0.9699 B( 27-C , 89-H ) :   0.9705
B( 27-C , 90-H ) :   0.9661 B( 30-S , 31-C ) :   1.0703 B( 31-C , 32-C ) :   1.4322
B( 31-C , 33-C ) :   1.3990 B( 32-C , 35-S ) :   1.0496 B( 33-C , 34-C ) :   1.5864
B( 33-C , 36-C ) :   0.9216 B( 34-C , 35-S ) :   1.0520 B( 34-C , 38-C ) :   1.2396
B( 36-C , 37-C ) :   0.9376 B( 36-C , 39-C ) :   1.0165 B( 36-C , 40-C ) :   1.0256
B( 37-C , 38-C ) :   1.5838 B( 37-C , 43-C ) :   1.3972 B( 38-C , 45-S ) :   1.0484
B( 39-C , 42-C ) :   1.0989 B( 39-C , 91-H ) :   0.9461 B( 39-C , 92-H ) :   0.9398
B( 40-C , 41-C ) :   1.0863 B( 40-C , 93-H ) :   0.9460 B( 40-C , 94-H ) :   0.9477
B( 41-C , 95-H ) :   0.9702 B( 41-C , 96-H ) :   0.9704 B( 41-C , 97-H ) :   0.9659
B( 42-C , 98-H ) :   0.9650 B( 42-C , 99-H ) :   0.9647 B( 42-C ,100-H ) :   0.9654
B( 43-C , 44-C ) :   1.4347 B( 43-C , 46-S ) :   1.0675 B( 44-C , 45-S ) :   1.0523
B( 44-C , 48-C ) :   1.4126 B( 46-S , 47-C ) :   1.0385 B( 47-C , 48-C ) :   1.5628
B( 47-C , 49-C ) :   1.2495 B( 48-C , 51-C ) :   0.9285 B( 49-C , 50-C ) :   1.4204
B( 49-C , 56-S ) :   1.1066 B( 50-C , 51-C ) :   0.9136 B( 50-C , 58-C ) :   1.4141
B( 51-C , 52-C ) :   1.0197 B( 51-C , 53-C ) :   1.0293 B( 52-C , 55-C ) :   1.0923
B( 52-C ,101-H ) :   0.9443 B( 52-C ,102-H ) :   0.9464 B( 53-C , 54-C ) :   1.0864
B( 53-C ,103-H ) :   0.9486 B( 53-C ,104-H ) :   0.9464 B( 54-C ,105-H ) :   0.9666
B( 54-C ,106-H ) :   0.9706 B( 54-C ,107-H ) :   0.9700 B( 55-C ,108-H ) :   0.9671
B( 55-C ,109-H ) :   0.9659 B( 55-C ,110-H ) :   0.9656 B( 56-S , 57-C ) :   1.0611
B( 57-C , 58-C ) :   1.3029 B( 57-C , 59-C ) :   1.3331 B( 58-C ,111-H ) :   1.0150
B( 59-C , 60-C ) :   1.4743 B( 59-C ,112-H ) :   0.9397 B( 60-C , 61-C ) :   1.1139
B( 60-C , 64-C ) :   0.9943 B( 61-C , 62-C ) :   1.0110 B( 61-C , 66-C ) :   1.6250
B( 62-C , 63-C ) :   1.3467 B( 62-C , 71-C ) :   1.3357 B( 63-C , 64-C ) :   0.9682
B( 63-C , 74-C ) :   1.3442 B( 64-C , 65-O ) :   2.1176 B( 66-C , 67-C ) :   1.1313
B( 66-C , 69-C ) :   1.1359 B( 67-C , 68-N ) :   2.9721 B( 69-C , 70-N ) :   2.9517
B( 71-C , 72-C ) :   1.3466 B( 71-C ,113-H ) :   0.9896 B( 72-C , 73-C ) :   1.2962
B( 72-C , 75-F ) :   1.1146 B( 73-C , 74-C ) :   1.3248 B( 73-C , 76-F ) :   1.0998
B( 74-C ,114-H ) :   1.0166

-----------------------------------------------------------------------------
         ABSORPTION SPECTRUM VIA TRANSITION ELECTRIC DIPOLE MOMENTS
-----------------------------------------------------------------------------
State   Energy  Wavelength   fosc         T2         TX        TY        TZ
        (cm-1)    (nm)                  (au**2)     (au)      (au)      (au)
-----------------------------------------------------------------------------
   0   16991.9    588.5   4.134481190  80.10406  -1.46180   8.52478  -2.30116
   1   24469.8    408.7   0.165694395   2.22922   0.50448   0.44295   1.33361
   2   28372.3    352.5   0.066328015   0.76962   0.44686   0.05620   0.75285
   3   29200.3    342.5   0.006685283   0.07537   0.06784   0.09270   0.24935
   4   30959.6    323.0   0.000472179   0.00502  -0.04972  -0.00192  -0.05045
   5   32499.4    307.7   0.162116140   1.64220   0.34962   1.07594   0.60194
   6   33778.5    296.0   0.069312745   0.67554  -0.34582   0.63269  -0.39452
   7   36812.8    271.6   0.298621742   2.67054   0.88634   0.21679   1.35571
   8   37283.3    268.2   0.230325293   2.03377  -0.92631   0.75581  -0.77748
   9   38068.7    262.7   0.067529707   0.58399   0.34299  -0.47439   0.49122
  10   38785.2    257.8   1.076236267   9.13518  -1.78126  -0.93947  -2.25382
  11   39601.7    252.5   0.309328733   2.57147   0.97774   0.34917   1.22212
  12   40057.1    249.6   0.019016764   0.15629   0.10614   0.37547   0.06361

Dispersion correction           -0.078136589
FINAL SINGLE POINT ENERGY     -5501.355220380308

DIPOLE MOMENT
-------------
                                X             Y             Z
Electronic contribution:     16.07533      12.91673      41.01919
Nuclear contribution   :    -17.06130     -13.32916     -42.55150
                        -----------------------------------------
Total Dipole Moment    :     -0.98597      -0.41243      -1.53230
                        -----------------------------------------
Magnitude (a.u.)       :      1.86821
Magnitude (Debye)      :      4.74860

Rotational constants in cm-1:     0.002630     0.000163     0.000155
Rotational constants in MHz :    78.838809     4.873487     4.651018

                             ****ORCA TERMINATED NORMALLY****
TOTAL RUN TIME: 0 days 0 hours 13 minutes 31 seconds 12 msec
