                         Program Version 4.2.0 -  RELEASE  -
|  1> # ORCA input file
|  2> # SCF done       -155.244138860931          0.000239354729
|  3> ! wb97x-d3 def2-SVP def2/J RIJCOSX Grid4 TightSCF
|  4> %maxcore 5000
|  5> %tddft
|  6>     Mode sTDA
|  7>     Ethresh 5.0
|  8>     maxcore 5000
|  9> end
| 10>
| 11> %pal
| 12>   nprocs 6
| 13>   end
| 14> * xyz 0 1
| 15>    C        2.42203        -1.72759        -0.54372
| 16>    C        2.77148        -0.98572         0.61120
| 17>    C        1.97270         0.04209         1.10606
| 18>    C        0.80422         0.31452         0.43428
| 19>    C        0.44356        -0.43794        -0.70671
| 20>    C        1.24065        -1.46846        -1.19997
| 21>    C        3.47626        -2.77497        -0.85402
| 22>    C        4.41550        -2.59137         0.31028
| 23>    C        3.99558        -1.53329         1.10377
| 24>    C        5.59942        -3.16616         0.75340
| 25>    C        6.08162        -2.54121         1.89399
| 26>    S        5.05403        -1.22821         2.41804
| 27>    C       -0.23626         1.37914         0.73858
| 28>    C       -1.25391         1.10253        -0.33561
| 29>    C       -0.81701         0.06600        -1.15140
| 30>    C       -2.50364         1.58510        -0.70396
| 31>    C       -3.00697         0.92749        -1.81693
| 32>    S       -1.92517        -0.31244        -2.40343
| 33>    C        7.26754        -2.86825         2.59209
| 34>    C       -4.24487         1.18313        -2.45119
| 35>    C       -0.83192         1.21413         2.14576
| 36>    S       -4.78355         0.29794        -3.86145
| 37>    C       -6.23483         1.25986        -3.85102
| 38>    C       -6.16789         2.15530        -2.78358
| 39>    N       -5.08269         2.10596        -2.02970
| 40>    S        7.83100        -1.95391         3.97399
| 41>    C        9.20060        -3.02508         4.06338
| 42>    C        9.09569        -3.96826         3.04104
| 43>    N        8.04367        -3.87236         2.24571
| 44>    C       -7.32606         1.19010        -4.73846
| 45>    C       10.26664        -2.99297         4.98325
| 46>    C       10.51113        -2.12294         6.00082
| 47>    C        9.73052        -0.96884         6.41624
| 48>    N       10.34377        -0.32840         7.47824
| 49>    C       11.50187        -0.85829         7.94766
| 50>    S       11.93360        -2.28495         7.01737
| 51>    O        8.68885        -0.57318         5.92937
| 52>    C        9.73723         0.84646         8.07444
| 53>    C        8.90271         0.47843         9.29441
| 54>    S       12.38447        -0.26606         9.18489
| 55>    C       -7.52457         0.37463        -5.80987
| 56>    C       -6.64852        -0.65702        -6.34069
| 57>    N       -7.22394        -1.25663        -7.44672
| 58>    C       -8.44926        -0.81845        -7.83280
| 59>    S       -8.99094         0.47207        -6.77078
| 60>    S       -9.30507        -1.38583        -9.10019
| 61>    C       -6.54259        -2.33912        -8.13042
| 62>    C       -7.01408        -3.69501        -7.62068
| 63>    O       -5.55496        -0.98058        -5.91843
| 64>    C       -1.39320        -0.18300         2.38368
| 65>    C        0.43256         2.76003         0.55914
| 66>    C       -0.51162         3.95134         0.64859
| 67>    C        2.88620        -4.19171        -0.90865
| 68>    C        4.27443        -2.43606        -2.13523
| 69>    C        3.47482        -2.40986        -3.43067
| 70>    C        2.22588        -4.59755         0.40393
| 71>    H        2.26875         0.58325         1.99174
| 72>    H        0.91528        -2.03862        -2.05582
| 73>    H        6.11650        -3.99408         0.30557
| 74>    H       -3.06472         2.35956        -0.21548
| 75>    H       -0.05403         1.42426         2.88229
| 76>    H       -1.63143         1.94390         2.27688
| 77>    H       -6.93929         2.86822        -2.54921
| 78>    H        9.81480        -4.75053         2.87019
| 79>    H       -8.11829         1.89770        -4.52061
| 80>    H       10.99589        -3.78287         4.84162
| 81>    H       10.53838         1.53483         8.35322
| 82>    H        9.10724         1.29431         7.30226
| 83>    H        9.53010         0.02622        10.05879
| 84>    H        8.44501         1.37398         9.70403
| 85>    H        8.11748        -0.22106         9.01697
| 86>    H       -6.74321        -2.24174        -9.19977
| 87>    H       -5.47608        -2.20710        -7.93341
| 88>    H       -8.08036        -3.81483        -7.79739
| 89>    H       -6.48337        -4.48423        -8.14483
| 90>    H       -6.81613        -3.78696        -6.55521
| 91>    H       -0.61396        -0.93533         2.28368
| 92>    H       -1.81116        -0.25145         3.38517
| 93>    H       -2.18084        -0.40721         1.66789
| 94>    H        1.20991         2.85711         1.31980
| 95>    H        0.92306         2.77050        -0.41765
| 96>    H       -1.00165         3.99729         1.61719
| 97>    H        0.05429         4.87047         0.51378
| 98>    H       -1.26970         3.90371        -0.12796
| 99>    H        2.14564        -4.23764        -1.70760
|100>    H        3.68743        -4.89439        -1.14594
|101>    H        4.73917        -1.45736        -1.99057
|102>    H        5.07646        -3.17229        -2.22366
|103>    H        2.72646        -1.62277        -3.41040
|104>    H        4.14825        -2.21271        -4.26197
|105>    H        2.98440        -3.36175        -3.61471
|106>    H        1.43096        -3.90172         0.66397
|107>    H        1.79651        -5.59248         0.31404
|108>    H        2.95121        -4.60896         1.21413
|109> *
|110>
|111>                          ****END OF INPUT****

CARTESIAN COORDINATES (ANGSTROEM)
---------------------------------
  C      2.422030   -1.727590   -0.543720
  C      2.771480   -0.985720    0.611200
  C      1.972700    0.042090    1.106060
  C      0.804220    0.314520    0.434280
  C      0.443560   -0.437940   -0.706710
  C      1.240650   -1.468460   -1.199970
  C      3.476260   -2.774970   -0.854020
  C      4.415500   -2.591370    0.310280
  C      3.995580   -1.533290    1.103770
  C      5.599420   -3.166160    0.753400
  C      6.081620   -2.541210    1.893990
  S      5.054030   -1.228210    2.418040
  C     -0.236260    1.379140    0.738580
  C     -1.253910    1.102530   -0.335610
  C     -0.817010    0.066000   -1.151400
  C     -2.503640    1.585100   -0.703960
  C     -3.006970    0.927490   -1.816930
  S     -1.925170   -0.312440   -2.403430
  C      7.267540   -2.868250    2.592090
  C     -4.244870    1.183130   -2.451190
  C     -0.831920    1.214130    2.145760
  S     -4.783550    0.297940   -3.861450
  C     -6.234830    1.259860   -3.851020
  C     -6.167890    2.155300   -2.783580
  N     -5.082690    2.105960   -2.029700
  S      7.831000   -1.953910    3.973990
  C      9.200600   -3.025080    4.063380
  C      9.095690   -3.968260    3.041040
  N      8.043670   -3.872360    2.245710
  C     -7.326060    1.190100   -4.738460
  C     10.266640   -2.992970    4.983250
  C     10.511130   -2.122940    6.000820
  C      9.730520   -0.968840    6.416240
  N     10.343770   -0.328400    7.478240
  C     11.501870   -0.858290    7.947660
  S     11.933600   -2.284950    7.017370
  O      8.688850   -0.573180    5.929370
  C      9.737230    0.846460    8.074440
  C      8.902710    0.478430    9.294410
  S     12.384470   -0.266060    9.184890
  C     -7.524570    0.374630   -5.809870
  C     -6.648520   -0.657020   -6.340690
  N     -7.223940   -1.256630   -7.446720
  C     -8.449260   -0.818450   -7.832800
  S     -8.990940    0.472070   -6.770780
  S     -9.305070   -1.385830   -9.100190
  C     -6.542590   -2.339120   -8.130420
  C     -7.014080   -3.695010   -7.620680
  O     -5.554960   -0.980580   -5.918430
  C     -1.393200   -0.183000    2.383680
  C      0.432560    2.760030    0.559140
  C     -0.511620    3.951340    0.648590
  C      2.886200   -4.191710   -0.908650
  C      4.274430   -2.436060   -2.135230
  C      3.474820   -2.409860   -3.430670
  C      2.225880   -4.597550    0.403930
  H      2.268750    0.583250    1.991740
  H      0.915280   -2.038620   -2.055820
  H      6.116500   -3.994080    0.305570
  H     -3.064720    2.359560   -0.215480
  H     -0.054030    1.424260    2.882290
  H     -1.631430    1.943900    2.276880
  H     -6.939290    2.868220   -2.549210
  H      9.814800   -4.750530    2.870190
  H     -8.118290    1.897700   -4.520610
  H     10.995890   -3.782870    4.841620
  H     10.538380    1.534830    8.353220
  H      9.107240    1.294310    7.302260
  H      9.530100    0.026220   10.058790
  H      8.445010    1.373980    9.704030
  H      8.117480   -0.221060    9.016970
  H     -6.743210   -2.241740   -9.199770
  H     -5.476080   -2.207100   -7.933410
  H     -8.080360   -3.814830   -7.797390
  H     -6.483370   -4.484230   -8.144830
  H     -6.816130   -3.786960   -6.555210
  H     -0.613960   -0.935330    2.283680
  H     -1.811160   -0.251450    3.385170
  H     -2.180840   -0.407210    1.667890
  H      1.209910    2.857110    1.319800
  H      0.923060    2.770500   -0.417650
  H     -1.001650    3.997290    1.617190
  H      0.054290    4.870470    0.513780
  H     -1.269700    3.903710   -0.127960
  H      2.145640   -4.237640   -1.707600
  H      3.687430   -4.894390   -1.145940
  H      4.739170   -1.457360   -1.990570
  H      5.076460   -3.172290   -2.223660
  H      2.726460   -1.622770   -3.410400
  H      4.148250   -2.212710   -4.261970
  H      2.984400   -3.361750   -3.614710
  H      1.430960   -3.901720    0.663970
  H      1.796510   -5.592480    0.314040
  H      2.951210   -4.608960    1.214130

 Total Charge           Charge          ....    0
 Multiplicity           Mult            ....    1
 Number of Electrons    NEL             ....  462
 Basis Dimension        Dim             .... 1006

ORBITAL ENERGIES
----------------

  NO   OCC          E(Eh)            E(eV)
   0   2.0000     -88.988815     -2421.5088
   1   2.0000     -88.988283     -2421.4943
   2   2.0000     -88.987014     -2421.4597
   3   2.0000     -88.986994     -2421.4592
   4   2.0000     -88.983489     -2421.3638
   5   2.0000     -88.983391     -2421.3612
   6   2.0000     -88.906012     -2419.2556
   7   2.0000     -88.905981     -2419.2547
   8   2.0000     -19.250287      -523.8269
   9   2.0000     -19.250273      -523.8266
  10   2.0000     -14.511724      -394.8841
  11   2.0000     -14.511699      -394.8834
  12   2.0000     -14.441283      -392.9673
  13   2.0000     -14.441217      -392.9655
  14   2.0000     -10.432461      -283.8817
  15   2.0000     -10.432455      -283.8815
  16   2.0000     -10.418381      -283.4986
  17   2.0000     -10.418334      -283.4973
  18   2.0000     -10.373701      -282.2828
  19   2.0000     -10.373578      -282.2794
  20   2.0000     -10.355750      -281.7943
  21   2.0000     -10.355739      -281.7940
  22   2.0000     -10.351282      -281.6727
  23   2.0000     -10.351221      -281.6711
  24   2.0000     -10.345482      -281.5149
  25   2.0000     -10.345364      -281.5117
  26   2.0000     -10.344088      -281.4769
  27   2.0000     -10.344066      -281.4764
  28   2.0000     -10.339589      -281.3545
  29   2.0000     -10.339453      -281.3508
  30   2.0000     -10.338163      -281.3157
  31   2.0000     -10.337980      -281.3107
  32   2.0000     -10.333676      -281.1936
  33   2.0000     -10.332312      -281.1565
  34   2.0000     -10.321142      -280.8526
  35   2.0000     -10.321097      -280.8513
  36   2.0000     -10.318436      -280.7789
  37   2.0000     -10.317404      -280.7508
  38   2.0000     -10.314849      -280.6813
  39   2.0000     -10.314226      -280.6644
  40   2.0000     -10.311698      -280.5956
  41   2.0000     -10.311035      -280.5775
  42   2.0000     -10.310837      -280.5721
  43   2.0000     -10.310168      -280.5539
  44   2.0000     -10.306318      -280.4492
  45   2.0000     -10.305312      -280.4218
  46   2.0000     -10.300002      -280.2773
  47   2.0000     -10.299694      -280.2689
  48   2.0000     -10.299429      -280.2617
  49   2.0000     -10.299323      -280.2588
  50   2.0000     -10.288959      -279.9768
  51   2.0000     -10.288641      -279.9682
  52   2.0000     -10.285861      -279.8925
  53   2.0000     -10.285483      -279.8822
  54   2.0000     -10.280539      -279.7477
  55   2.0000     -10.280519      -279.7472
  56   2.0000      -8.102407      -220.4777
  57   2.0000      -8.101804      -220.4613
  58   2.0000      -8.099976      -220.4115
  59   2.0000      -8.099951      -220.4109
  60   2.0000      -8.098964      -220.3840
  61   2.0000      -8.098912      -220.3826
  62   2.0000      -8.021979      -218.2891
  63   2.0000      -8.021949      -218.2883
  64   2.0000      -6.061865      -164.9517
  65   2.0000      -6.061295      -164.9362
  66   2.0000      -6.059443      -164.8858
  67   2.0000      -6.059408      -164.8849
  68   2.0000      -6.059053      -164.8752
  69   2.0000      -6.058999      -164.8737
  70   2.0000      -6.057796      -164.8410
  71   2.0000      -6.057198      -164.8247
  72   2.0000      -6.055085      -164.7672
  73   2.0000      -6.055055      -164.7664
  74   2.0000      -6.055031      -164.7658
  75   2.0000      -6.055031      -164.7658
  76   2.0000      -6.054779      -164.7589
  77   2.0000      -6.054160      -164.7421
  78   2.0000      -6.052370      -164.6934
  79   2.0000      -6.052368      -164.6933
  80   2.0000      -6.049363      -164.6115
  81   2.0000      -6.049301      -164.6099
  82   2.0000      -5.982064      -162.7802
  83   2.0000      -5.982035      -162.7794
  84   2.0000      -5.978435      -162.6815
  85   2.0000      -5.978411      -162.6808
  86   2.0000      -5.972298      -162.5145
  87   2.0000      -5.972264      -162.5136
  88   2.0000      -1.195719       -32.5372
  89   2.0000      -1.195710       -32.5369
  90   2.0000      -1.119063       -30.4512
  91   2.0000      -1.119055       -30.4510
  92   2.0000      -1.103421       -30.0256
  93   2.0000      -1.103330       -30.0231
  94   2.0000      -1.046684       -28.4817
  95   2.0000      -1.037603       -28.2346
  96   2.0000      -0.999275       -27.1917
  97   2.0000      -0.991908       -26.9912
  98   2.0000      -0.991237       -26.9729
  99   2.0000      -0.977598       -26.6018
 100   2.0000      -0.948773       -25.8174
 101   2.0000      -0.948697       -25.8154
 102   2.0000      -0.943438       -25.6722
 103   2.0000      -0.925841       -25.1934
 104   2.0000      -0.917718       -24.9724
 105   2.0000      -0.915889       -24.9226
 106   2.0000      -0.908653       -24.7257
 107   2.0000      -0.896900       -24.4059
 108   2.0000      -0.887168       -24.1411
 109   2.0000      -0.881926       -23.9984
 110   2.0000      -0.876097       -23.8398
 111   2.0000      -0.874947       -23.8085
 112   2.0000      -0.872607       -23.7448
 113   2.0000      -0.869556       -23.6618
 114   2.0000      -0.868029       -23.6203
 115   2.0000      -0.866784       -23.5864
 116   2.0000      -0.849767       -23.1233
 117   2.0000      -0.836961       -22.7749
 118   2.0000      -0.807959       -21.9857
 119   2.0000      -0.806322       -21.9411
 120   2.0000      -0.790895       -21.5213
 121   2.0000      -0.790342       -21.5063
 122   2.0000      -0.784744       -21.3540
 123   2.0000      -0.775163       -21.0933
 124   2.0000      -0.760353       -20.6903
 125   2.0000      -0.758323       -20.6350
 126   2.0000      -0.745142       -20.2763
 127   2.0000      -0.740508       -20.1502
 128   2.0000      -0.730615       -19.8810
 129   2.0000      -0.728851       -19.8330
 130   2.0000      -0.724878       -19.7249
 131   2.0000      -0.722411       -19.6578
 132   2.0000      -0.704476       -19.1698
 133   2.0000      -0.703160       -19.1340
 134   2.0000      -0.695405       -18.9229
 135   2.0000      -0.691377       -18.8133
 136   2.0000      -0.671179       -18.2637
 137   2.0000      -0.664301       -18.0765
 138   2.0000      -0.657582       -17.8937
 139   2.0000      -0.655414       -17.8347
 140   2.0000      -0.648800       -17.6548
 141   2.0000      -0.638578       -17.3766
 142   2.0000      -0.636237       -17.3129
 143   2.0000      -0.623170       -16.9573
 144   2.0000      -0.619254       -16.8508
 145   2.0000      -0.613127       -16.6840
 146   2.0000      -0.606642       -16.5076
 147   2.0000      -0.602868       -16.4049
 148   2.0000      -0.597804       -16.2671
 149   2.0000      -0.597381       -16.2556
 150   2.0000      -0.586839       -15.9687
 151   2.0000      -0.586705       -15.9651
 152   2.0000      -0.585978       -15.9453
 153   2.0000      -0.578316       -15.7368
 154   2.0000      -0.577082       -15.7032
 155   2.0000      -0.573987       -15.6190
 156   2.0000      -0.566003       -15.4017
 157   2.0000      -0.564351       -15.3568
 158   2.0000      -0.562562       -15.3081
 159   2.0000      -0.560507       -15.2522
 160   2.0000      -0.556353       -15.1391
 161   2.0000      -0.555294       -15.1103
 162   2.0000      -0.554774       -15.0962
 163   2.0000      -0.552476       -15.0336
 164   2.0000      -0.551438       -15.0054
 165   2.0000      -0.546380       -14.8677
 166   2.0000      -0.541044       -14.7226
 167   2.0000      -0.540889       -14.7183
 168   2.0000      -0.536637       -14.6026
 169   2.0000      -0.530915       -14.4469
 170   2.0000      -0.527163       -14.3448
 171   2.0000      -0.520946       -14.1757
 172   2.0000      -0.516902       -14.0656
 173   2.0000      -0.514449       -13.9989
 174   2.0000      -0.512697       -13.9512
 175   2.0000      -0.507420       -13.8076
 176   2.0000      -0.505615       -13.7585
 177   2.0000      -0.501121       -13.6362
 178   2.0000      -0.496860       -13.5202
 179   2.0000      -0.496789       -13.5183
 180   2.0000      -0.495875       -13.4934
 181   2.0000      -0.492723       -13.4077
 182   2.0000      -0.490256       -13.3405
 183   2.0000      -0.490016       -13.3340
 184   2.0000      -0.487259       -13.2590
 185   2.0000      -0.482071       -13.1178
 186   2.0000      -0.481448       -13.1009
 187   2.0000      -0.480845       -13.0845
 188   2.0000      -0.478590       -13.0231
 189   2.0000      -0.477220       -12.9858
 190   2.0000      -0.471970       -12.8430
 191   2.0000      -0.471905       -12.8412
 192   2.0000      -0.470230       -12.7956
 193   2.0000      -0.468423       -12.7464
 194   2.0000      -0.466659       -12.6984
 195   2.0000      -0.465932       -12.6786
 196   2.0000      -0.462553       -12.5867
 197   2.0000      -0.456616       -12.4251
 198   2.0000      -0.454711       -12.3733
 199   2.0000      -0.454206       -12.3596
 200   2.0000      -0.453106       -12.3296
 201   2.0000      -0.451837       -12.2951
 202   2.0000      -0.449236       -12.2243
 203   2.0000      -0.448097       -12.1933
 204   2.0000      -0.446194       -12.1416
 205   2.0000      -0.433881       -11.8065
 206   2.0000      -0.429860       -11.6971
 207   2.0000      -0.424896       -11.5620
 208   2.0000      -0.422934       -11.5086
 209   2.0000      -0.418523       -11.3886
 210   2.0000      -0.413322       -11.2471
 211   2.0000      -0.411475       -11.1968
 212   2.0000      -0.401569       -10.9273
 213   2.0000      -0.401453       -10.9241
 214   2.0000      -0.394971       -10.7477
 215   2.0000      -0.390132       -10.6160
 216   2.0000      -0.384070       -10.4511
 217   2.0000      -0.373486       -10.1631
 218   2.0000      -0.367627       -10.0036
 219   2.0000      -0.367555       -10.0017
 220   2.0000      -0.360153        -9.8003
 221   2.0000      -0.358056        -9.7432
 222   2.0000      -0.354119        -9.6361
 223   2.0000      -0.350142        -9.5278
 224   2.0000      -0.345271        -9.3953
 225   2.0000      -0.329966        -8.9788
 226   2.0000      -0.320192        -8.7129
 227   2.0000      -0.320138        -8.7114
 228   2.0000      -0.309875        -8.4321
 229   2.0000      -0.284870        -7.7517
 230   2.0000      -0.259583        -7.0636
 231   0.0000      -0.054723        -1.4891
 232   0.0000      -0.042914        -1.1678
 233   0.0000      -0.009709        -0.2642
 234   0.0000       0.011466         0.3120
 235   0.0000       0.036914         1.0045

MULLIKEN ATOMIC CHARGES
-----------------------
   0 C :    0.008659
   1 C :    0.029806
   2 C :   -0.092275
   3 C :    0.011252
   4 C :    0.030420
   5 C :   -0.095877
   6 C :   -0.209856
   7 C :    0.016230
   8 C :   -0.046212
   9 C :   -0.029032
  10 C :   -0.078142
  11 S :    0.162362
  12 C :   -0.215075
  13 C :    0.025489
  14 C :   -0.045693
  15 C :   -0.039283
  16 C :   -0.079412
  17 S :    0.164324
  18 C :   -0.054199
  19 C :   -0.052358
  20 C :    0.014533
  21 S :    0.168263
  22 C :   -0.119270
  23 C :    0.069984
  24 N :   -0.113772
  25 S :    0.168851
  26 C :   -0.119288
  27 C :    0.068267
  28 N :   -0.112668
  29 C :    0.061420
  30 C :    0.061688
  31 C :   -0.251896
  32 C :    0.319123
  33 N :   -0.279657
  34 C :    0.018279
  35 S :    0.135326
  36 O :   -0.235028
  37 C :    0.080209
  38 C :   -0.047165
  39 S :   -0.179814
  40 C :   -0.251986
  41 C :    0.318847
  42 N :   -0.277369
  43 C :    0.017791
  44 S :    0.135017
  45 S :   -0.179879
  46 C :    0.073893
  47 C :   -0.046357
  48 O :   -0.234863
  49 C :   -0.020275
  50 C :    0.038627
  51 C :   -0.019537
  52 C :    0.015103
  53 C :    0.034548
  54 C :   -0.014765
  55 C :   -0.019515
  56 H :   -0.012944
  57 H :   -0.011694
  58 H :    0.019546
  59 H :    0.023596
  60 H :    0.024186
  61 H :    0.033363
  62 H :    0.026743
  63 H :    0.027066
  64 H :    0.034422
  65 H :    0.034821
  66 H :    0.058562
  67 H :    0.063079
  68 H :    0.047257
  69 H :    0.045158
  70 H :    0.042479
  71 H :    0.060119
  72 H :    0.064302
  73 H :    0.046993
  74 H :    0.046444
  75 H :    0.042642
  76 H :    0.039702
  77 H :    0.033541
  78 H :    0.041205
  79 H :    0.021108
  80 H :    0.031107
  81 H :    0.026627
  82 H :    0.037896
  83 H :    0.037701
  84 H :    0.031483
  85 H :    0.025811
  86 H :    0.031254
  87 H :    0.024637
  88 H :    0.037705
  89 H :    0.038717
  90 H :    0.023340
  91 H :    0.038911
  92 H :    0.033260
  93 H :    0.042062
Sum of atomic charges:   -0.0000000

LOEWDIN ATOMIC CHARGES
----------------------
   0 C :    0.005172
   1 C :   -0.030946
   2 C :   -0.025519
   3 C :    0.009022
   4 C :   -0.035573
   5 C :   -0.025576
   6 C :   -0.038543
   7 C :   -0.043071
   8 C :   -0.170176
   9 C :   -0.017885
  10 C :   -0.208062
  11 S :    0.433796
  12 C :   -0.038899
  13 C :   -0.045846
  14 C :   -0.166832
  15 C :   -0.020369
  16 C :   -0.210084
  17 S :    0.435216
  18 C :   -0.136247
  19 C :   -0.136009
  20 C :   -0.017850
  21 S :    0.463734
  22 C :   -0.220060
  23 C :    0.001388
  24 N :   -0.114028
  25 S :    0.464089
  26 C :   -0.219970
  27 C :    0.001121
  28 N :   -0.113517
  29 C :    0.006761
  30 C :    0.006736
  31 C :   -0.236468
  32 C :    0.076427
  33 N :   -0.023389
  34 C :   -0.238672
  35 S :    0.373165
  36 O :   -0.193695
  37 C :    0.038890
  38 C :   -0.061992
  39 S :   -0.049673
  40 C :   -0.236588
  41 C :    0.076322
  42 N :   -0.023229
  43 C :   -0.238821
  44 S :    0.373165
  45 S :   -0.049839
  46 C :    0.038362
  47 C :   -0.062124
  48 O :   -0.193878
  49 C :   -0.058730
  50 C :   -0.013009
  51 C :   -0.061138
  52 C :   -0.018577
  53 C :   -0.012679
  54 C :   -0.062416
  55 C :   -0.058440
  56 H :    0.029476
  57 H :    0.029021
  58 H :    0.039874
  59 H :    0.039130
  60 H :    0.023027
  61 H :    0.024414
  62 H :    0.028994
  63 H :    0.029011
  64 H :    0.049546
  65 H :    0.049563
  66 H :    0.027845
  67 H :    0.034931
  68 H :    0.026562
  69 H :    0.034216
  70 H :    0.029309
  71 H :    0.027835
  72 H :    0.035176
  73 H :    0.026799
  74 H :    0.034487
  75 H :    0.029341
  76 H :    0.026443
  77 H :    0.027480
  78 H :    0.027783
  79 H :    0.022108
  80 H :    0.029645
  81 H :    0.022830
  82 H :    0.031206
  83 H :    0.026910
  84 H :    0.022125
  85 H :    0.024890
  86 H :    0.030030
  87 H :    0.024074
  88 H :    0.025487
  89 H :    0.031618
  90 H :    0.022142
  91 H :    0.026951
  92 H :    0.027287
  93 H :    0.027486

  Mayer bond orders larger than 0.100000
B(  0-C ,  1-C ) :   1.3811 B(  0-C ,  5-C ) :   1.4274 B(  0-C ,  6-C ) :   0.9090
B(  1-C ,  2-C ) :   1.3267 B(  1-C ,  8-C ) :   1.0810 B(  2-C ,  3-C ) :   1.4198
B(  2-C , 56-H ) :   1.0041 B(  3-C ,  4-C ) :   1.3820 B(  3-C , 12-C ) :   0.9197
B(  4-C ,  5-C ) :   1.3229 B(  4-C , 14-C ) :   1.0790 B(  5-C , 57-H ) :   0.9988
B(  6-C ,  7-C ) :   0.9421 B(  6-C , 52-C ) :   1.0287 B(  6-C , 53-C ) :   1.0065
B(  7-C ,  8-C ) :   1.5232 B(  7-C ,  9-C ) :   1.2962 B(  8-C , 11-S ) :   1.1145
B(  9-C , 10-C ) :   1.4764 B(  9-C , 58-H ) :   1.0173 B( 10-C , 11-S ) :   1.1112
B( 10-C , 18-C ) :   1.1273 B( 12-C , 13-C ) :   0.9299 B( 12-C , 20-C ) :   1.0241
B( 12-C , 50-C ) :   1.0123 B( 13-C , 14-C ) :   1.5261 B( 13-C , 15-C ) :   1.2961
B( 14-C , 17-S ) :   1.1194 B( 15-C , 16-C ) :   1.4781 B( 15-C , 59-H ) :   1.0115
B( 16-C , 17-S ) :   1.1098 B( 16-C , 19-C ) :   1.1282 B( 18-C , 25-S ) :   1.1270
B( 18-C , 28-N ) :   1.6478 B( 19-C , 21-S ) :   1.1269 B( 19-C , 24-N ) :   1.6467
B( 20-C , 49-C ) :   1.0897 B( 20-C , 60-H ) :   0.9479 B( 20-C , 61-H ) :   0.9471
B( 21-S , 22-C ) :   1.1016 B( 22-C , 23-C ) :   1.3935 B( 22-C , 29-C ) :   1.2254
B( 23-C , 24-N ) :   1.4467 B( 23-C , 62-H ) :   0.9951 B( 25-S , 26-C ) :   1.1027
B( 26-C , 27-C ) :   1.3936 B( 26-C , 30-C ) :   1.2238 B( 27-C , 28-N ) :   1.4466
B( 27-C , 63-H ) :   0.9950 B( 29-C , 40-C ) :   1.6894 B( 29-C , 64-H ) :   0.9512
B( 30-C , 31-C ) :   1.6910 B( 30-C , 65-H ) :   0.9514 B( 31-C , 32-C ) :   0.9820
B( 31-C , 35-S ) :   1.0277 B( 32-C , 33-N ) :   1.0678 B( 32-C , 36-O ) :   2.0325
B( 33-N , 34-C ) :   1.1383 B( 33-N , 37-C ) :   0.8982 B( 34-C , 35-S ) :   1.0621
B( 34-C , 39-S ) :   1.6787 B( 37-C , 38-C ) :   1.1030 B( 37-C , 66-H ) :   0.9418
B( 37-C , 67-H ) :   0.9415 B( 38-C , 68-H ) :   0.9679 B( 38-C , 69-H ) :   0.9746
B( 38-C , 70-H ) :   0.9702 B( 40-C , 41-C ) :   0.9825 B( 40-C , 44-S ) :   1.0277
B( 41-C , 42-N ) :   1.0671 B( 41-C , 48-O ) :   2.0333 B( 42-N , 43-C ) :   1.1386
B( 42-N , 46-C ) :   0.8982 B( 43-C , 44-S ) :   1.0618 B( 43-C , 45-S ) :   1.6787
B( 46-C , 47-C ) :   1.1046 B( 46-C , 71-H ) :   0.9419 B( 46-C , 72-H ) :   0.9415
B( 47-C , 73-H ) :   0.9677 B( 47-C , 74-H ) :   0.9741 B( 47-C , 75-H ) :   0.9701
B( 49-C , 76-H ) :   0.9663 B( 49-C , 77-H ) :   0.9708 B( 49-C , 78-H ) :   0.9687
B( 50-C , 51-C ) :   1.0979 B( 50-C , 79-H ) :   0.9436 B( 50-C , 80-H ) :   0.9478
B( 51-C , 81-H ) :   0.9677 B( 51-C , 82-H ) :   0.9673 B( 51-C , 83-H ) :   0.9669
B( 52-C , 55-C ) :   1.0900 B( 52-C , 84-H ) :   0.9454 B( 52-C , 85-H ) :   0.9480
B( 53-C , 54-C ) :   1.1029 B( 53-C , 86-H ) :   0.9473 B( 53-C , 87-H ) :   0.9453
B( 54-C , 88-H ) :   0.9638 B( 54-C , 89-H ) :   0.9662 B( 54-C , 90-H ) :   0.9671
B( 55-C , 91-H ) :   0.9684 B( 55-C , 92-H ) :   0.9707 B( 55-C , 93-H ) :   0.9664

-----------------------------------------------------------------------------
         ABSORPTION SPECTRUM VIA TRANSITION ELECTRIC DIPOLE MOMENTS
-----------------------------------------------------------------------------
State   Energy  Wavelength   fosc         T2         TX        TY        TZ
        (cm-1)    (nm)                  (au**2)     (au)      (au)      (au)
-----------------------------------------------------------------------------
   0   20537.8    486.9   3.404100893  54.56627  -5.87034   0.18030  -4.48028
   1   26625.2    375.6   0.000148601   0.00184   0.00784   0.03543  -0.02282
   2   33616.0    297.5   1.355515620  13.27499   0.40627  -2.69449  -2.41861
   3   34794.8    287.4   0.000049152   0.00047   0.01658  -0.01306  -0.00442
   4   36816.4    271.6   0.175345993   1.56794  -0.45125  -0.62965  -0.98380

Dispersion correction           -0.055616898
FINAL SINGLE POINT ENERGY     -5175.424655831864

DIPOLE MOMENT
-------------
                                X             Y             Z
Electronic contribution:      6.67467       2.60225      -2.41071
Nuclear contribution   :     -6.70853      -2.63363       2.44765
                        -----------------------------------------
Total Dipole Moment    :     -0.03386      -0.03138       0.03693
                        -----------------------------------------
Magnitude (a.u.)       :      0.05912
Magnitude (Debye)      :      0.15028

Rotational constants in cm-1:     0.003663     0.000277     0.000261
Rotational constants in MHz :   109.814911     8.290137     7.815441

                             ****ORCA TERMINATED NORMALLY****
TOTAL RUN TIME: 0 days 0 hours 9 minutes 12 seconds 279 msec
