                         Program Version 4.2.0 -  RELEASE  -
|  1> # ORCA input file
|  2> # SCF done       -200.445182100266          0.000775049534
|  3> ! wb97x-d3 def2-SVP def2/J RIJCOSX Grid4 TightSCF
|  4> %maxcore 5000
|  5> %tddft
|  6>     Mode sTDA
|  7>     Ethresh 5.0
|  8>     maxcore 5000
|  9> end
| 10>
| 11> %pal
| 12>   nprocs 6
| 13>   end
| 14> * xyz 0 1
| 15>    C       18.20016        -0.30859         0.35815
| 16>    O       17.93453         0.55146         1.18280
| 17>    C       17.23279        -1.01702        -0.49447
| 18>    C       15.85486        -0.82112        -0.53900
| 19>    C       15.20481        -1.63022        -1.43941
| 20>    C       15.87750        -2.56232        -2.24056
| 21>    C       17.23755        -2.76246        -2.20818
| 22>    C       17.91837        -1.95374        -1.29420
| 23>    C       19.34451        -1.88053        -0.97817
| 24>    C       20.31482        -2.69551        -1.50448
| 25>    C       21.68809        -2.65230        -1.18684
| 26>    N       22.81919        -2.68511        -0.98425
| 27>    C       20.07345        -3.72533        -2.43780
| 28>    N       19.95741        -4.58191        -3.19387
| 29>    C       19.52227        -0.83672         0.01226
| 30>    C       20.72671        -0.39905         0.50290
| 31>    C       21.02325         0.55607         1.48221
| 32>    S       19.81962         1.42524         2.43303
| 33>    C       21.06972         2.20327         3.32728
| 34>    C       22.34778         1.82367         2.88342
| 35>    C       22.33642         0.89388         1.85165
| 36>    C       23.58238         0.37337         1.21279
| 37>    S       23.65416         2.58484         3.77363
| 38>    C       22.47693         3.38772         4.75438
| 39>    C       21.15270         3.10609         4.39095
| 40>    N       20.29057         3.73764         5.24696
| 41>    C       21.04613         4.42556         6.17330
| 42>    C       22.42575         4.19730         5.89716
| 43>    C       23.43527         4.62572         6.78955
| 44>    N       24.74587         4.47883         6.68208
| 45>    S       25.43999         5.03998         8.03212
| 46>    N       24.09396         5.49223         8.80929
| 47>    C       23.05268         5.22502         8.03759
| 48>    C       21.68627         5.49311         8.27881
| 49>    C       20.69226         5.20371         7.30236
| 50>    N       19.47160         5.68196         7.74745
| 51>    C       19.67155         6.20101         9.00204
| 52>    C       21.02088         6.09240         9.35998
| 53>    S       21.36563         6.69030        10.94387
| 54>    C       19.67006         7.07380        11.15145
| 55>    C       18.90263         6.77474        10.01534
| 56>    S       17.25393         7.21146        10.23981
| 57>    C       17.59037         7.70855        11.90073
| 58>    C       18.93928         7.60054        12.22402
| 59>    C       19.58373         8.13936        13.46047
| 60>    C       16.49575         8.21634        12.63463
| 61>    C       16.25517         8.01868        13.96771
| 62>    C       15.24380         8.67307        14.76687
| 63>    C       14.56874         9.82082        14.43951
| 64>    C       13.59975        10.42978        15.26291
| 65>    N       12.79735        10.96385        15.88642
| 66>    C       14.77597        10.55371        13.25213
| 67>    N       14.91347        11.20757        12.31807
| 68>    C       15.13265         7.93993        16.02509
| 69>    C       14.30858         8.12330        17.12303
| 70>    C       14.42950         7.25057        18.19923
| 71>   Cl       13.41081         7.46706        19.56495
| 72>    C       15.35871         6.20469        18.18454
| 73>   Cl       15.48270         5.14691        19.53177
| 74>    C       16.18287         6.01526        17.08198
| 75>    C       16.06288         6.88609        16.01900
| 76>    C       16.80360         6.87979        14.73833
| 77>    O       17.59299         6.03970        14.36594
| 78>    C       18.89445         3.35980         5.28339
| 79>    C       18.36173         6.16757         6.95433
| 80>    C       14.60558        -3.03111        -2.90144
| 81>    C       13.85615        -1.99272        -2.00813
| 82>    C       14.00613        -4.38078        -2.43472
| 83>    C       14.46242        -4.58417        -1.01116
| 84>    C       13.82612        -3.70204        -0.25214
| 85>    C       12.92762        -2.88650        -1.14891
| 86>    C       12.55065        -3.94914        -2.19347
| 87>    C       23.89122         1.13084        -0.08148
| 88>    C       18.09789         3.97166         4.13092
| 89>    C       18.46659         7.67504         6.72303
| 90>    C       20.39257         7.08183        14.21108
| 91>    H       15.37843        -0.08847         0.09363
| 92>    H       17.73794        -3.48026        -2.83616
| 93>    H       21.60771        -0.85593         0.07343
| 94>    H       24.40815         0.51334         1.91320
| 95>    H       23.49501        -0.69285         0.99697
| 96>    H       20.25675         8.94763        13.15515
| 97>    H       18.82357         8.56260        14.11766
| 98>    H       15.75533         8.75269        12.05173
| 99>    H       13.57653         8.91317        17.16532
|100>    H       16.89996         5.21001        17.05627
|101>    H       18.48114         3.63096         6.25547
|102>    H       18.84470         2.26898         5.19358
|103>    H       18.36140         5.67112         5.99101
|104>    H       17.43310         5.93690         7.48564
|105>    H       14.55511        -2.90577        -3.98122
|106>    H       13.31539        -1.18918        -2.50465
|107>    H       14.17680        -5.20968        -3.11623
|108>    H       15.22022        -5.28791        -0.72031
|109>    H       13.94614        -3.52124         0.80011
|110>    H       12.11547        -2.35484        -0.65977
|111>    H       12.06814        -3.53601        -3.07828
|112>    H       11.93751        -4.74798        -1.77910
|113>    H       24.02084         2.19124         0.12258
|114>    H       24.80581         0.74618        -0.52376
|115>    H       23.08342         1.01229        -0.80007
|116>    H       18.26912         5.04279         4.04513
|117>    H       18.38429         3.50907         3.19076
|118>    H       17.03737         3.79565         4.28628
|119>    H       19.40484         7.91549         6.22714
|120>    H       17.64423         8.00325         6.09356
|121>    H       18.41898         8.22003         7.66161
|122>    H       21.21380         6.71962        13.59867
|123>    H       20.80165         7.51250        15.12141
|124>    H       19.75497         6.24283        14.47337
|125> *
|126>
|127>                          ****END OF INPUT****

CARTESIAN COORDINATES (ANGSTROEM)
---------------------------------
  C     18.200160   -0.308590    0.358150
  O     17.934530    0.551460    1.182800
  C     17.232790   -1.017020   -0.494470
  C     15.854860   -0.821120   -0.539000
  C     15.204810   -1.630220   -1.439410
  C     15.877500   -2.562320   -2.240560
  C     17.237550   -2.762460   -2.208180
  C     17.918370   -1.953740   -1.294200
  C     19.344510   -1.880530   -0.978170
  C     20.314820   -2.695510   -1.504480
  C     21.688090   -2.652300   -1.186840
  N     22.819190   -2.685110   -0.984250
  C     20.073450   -3.725330   -2.437800
  N     19.957410   -4.581910   -3.193870
  C     19.522270   -0.836720    0.012260
  C     20.726710   -0.399050    0.502900
  C     21.023250    0.556070    1.482210
  S     19.819620    1.425240    2.433030
  C     21.069720    2.203270    3.327280
  C     22.347780    1.823670    2.883420
  C     22.336420    0.893880    1.851650
  C     23.582380    0.373370    1.212790
  S     23.654160    2.584840    3.773630
  C     22.476930    3.387720    4.754380
  C     21.152700    3.106090    4.390950
  N     20.290570    3.737640    5.246960
  C     21.046130    4.425560    6.173300
  C     22.425750    4.197300    5.897160
  C     23.435270    4.625720    6.789550
  N     24.745870    4.478830    6.682080
  S     25.439990    5.039980    8.032120
  N     24.093960    5.492230    8.809290
  C     23.052680    5.225020    8.037590
  C     21.686270    5.493110    8.278810
  C     20.692260    5.203710    7.302360
  N     19.471600    5.681960    7.747450
  C     19.671550    6.201010    9.002040
  C     21.020880    6.092400    9.359980
  S     21.365630    6.690300   10.943870
  C     19.670060    7.073800   11.151450
  C     18.902630    6.774740   10.015340
  S     17.253930    7.211460   10.239810
  C     17.590370    7.708550   11.900730
  C     18.939280    7.600540   12.224020
  C     19.583730    8.139360   13.460470
  C     16.495750    8.216340   12.634630
  C     16.255170    8.018680   13.967710
  C     15.243800    8.673070   14.766870
  C     14.568740    9.820820   14.439510
  C     13.599750   10.429780   15.262910
  N     12.797350   10.963850   15.886420
  C     14.775970   10.553710   13.252130
  N     14.913470   11.207570   12.318070
  C     15.132650    7.939930   16.025090
  C     14.308580    8.123300   17.123030
  C     14.429500    7.250570   18.199230
  Cl    13.410810    7.467060   19.564950
  C     15.358710    6.204690   18.184540
  Cl    15.482700    5.146910   19.531770
  C     16.182870    6.015260   17.081980
  C     16.062880    6.886090   16.019000
  C     16.803600    6.879790   14.738330
  O     17.592990    6.039700   14.365940
  C     18.894450    3.359800    5.283390
  C     18.361730    6.167570    6.954330
  C     14.605580   -3.031110   -2.901440
  C     13.856150   -1.992720   -2.008130
  C     14.006130   -4.380780   -2.434720
  C     14.462420   -4.584170   -1.011160
  C     13.826120   -3.702040   -0.252140
  C     12.927620   -2.886500   -1.148910
  C     12.550650   -3.949140   -2.193470
  C     23.891220    1.130840   -0.081480
  C     18.097890    3.971660    4.130920
  C     18.466590    7.675040    6.723030
  C     20.392570    7.081830   14.211080
  H     15.378430   -0.088470    0.093630
  H     17.737940   -3.480260   -2.836160
  H     21.607710   -0.855930    0.073430
  H     24.408150    0.513340    1.913200
  H     23.495010   -0.692850    0.996970
  H     20.256750    8.947630   13.155150
  H     18.823570    8.562600   14.117660
  H     15.755330    8.752690   12.051730
  H     13.576530    8.913170   17.165320
  H     16.899960    5.210010   17.056270
  H     18.481140    3.630960    6.255470
  H     18.844700    2.268980    5.193580
  H     18.361400    5.671120    5.991010
  H     17.433100    5.936900    7.485640
  H     14.555110   -2.905770   -3.981220
  H     13.315390   -1.189180   -2.504650
  H     14.176800   -5.209680   -3.116230
  H     15.220220   -5.287910   -0.720310
  H     13.946140   -3.521240    0.800110
  H     12.115470   -2.354840   -0.659770
  H     12.068140   -3.536010   -3.078280
  H     11.937510   -4.747980   -1.779100
  H     24.020840    2.191240    0.122580
  H     24.805810    0.746180   -0.523760
  H     23.083420    1.012290   -0.800070
  H     18.269120    5.042790    4.045130
  H     18.384290    3.509070    3.190760
  H     17.037370    3.795650    4.286280
  H     19.404840    7.915490    6.227140
  H     17.644230    8.003250    6.093560
  H     18.418980    8.220030    7.661610
  H     21.213800    6.719620   13.598670
  H     20.801650    7.512500   15.121410
  H     19.754970    6.242830   14.473370

 Total Charge           Charge          ....    0
 Multiplicity           Mult            ....    1
 Number of Electrons    NEL             ....  574
 Basis Dimension        Dim             .... 1262

ORBITAL ENERGIES
----------------

  NO   OCC          E(Eh)            E(eV)
   0   2.0000    -101.627952     -2765.4372
   1   2.0000    -101.626263     -2765.3912
   2   2.0000     -89.029480     -2422.6153
   3   2.0000     -88.998990     -2421.7856
   4   2.0000     -88.992232     -2421.6017
   5   2.0000     -88.988644     -2421.5041
   6   2.0000     -88.985869     -2421.4286
   7   2.0000     -19.260110      -524.0942
   8   2.0000     -19.252757      -523.8942
   9   2.0000     -14.522810      -395.1858
  10   2.0000     -14.521656      -395.1543
  11   2.0000     -14.468200      -393.6997
  12   2.0000     -14.467518      -393.6812
  13   2.0000     -14.454110      -393.3163
  14   2.0000     -14.453703      -393.3053
  15   2.0000     -14.449696      -393.1962
  16   2.0000     -14.443132      -393.0176
  17   2.0000     -10.410265      -283.2777
  18   2.0000     -10.398512      -282.9579
  19   2.0000     -10.394756      -282.8557
  20   2.0000     -10.394314      -282.8437
  21   2.0000     -10.383722      -282.5554
  22   2.0000     -10.382222      -282.5146
  23   2.0000     -10.374358      -282.3006
  24   2.0000     -10.373617      -282.2805
  25   2.0000     -10.373381      -282.2740
  26   2.0000     -10.369435      -282.1667
  27   2.0000     -10.368946      -282.1534
  28   2.0000     -10.367907      -282.1251
  29   2.0000     -10.364615      -282.0355
  30   2.0000     -10.361799      -281.9589
  31   2.0000     -10.357058      -281.8299
  32   2.0000     -10.354951      -281.7725
  33   2.0000     -10.354318      -281.7553
  34   2.0000     -10.353801      -281.7412
  35   2.0000     -10.353566      -281.7349
  36   2.0000     -10.353392      -281.7301
  37   2.0000     -10.353334      -281.7285
  38   2.0000     -10.353057      -281.7210
  39   2.0000     -10.351804      -281.6869
  40   2.0000     -10.351680      -281.6835
  41   2.0000     -10.348844      -281.6063
  42   2.0000     -10.346647      -281.5466
  43   2.0000     -10.346550      -281.5439
  44   2.0000     -10.346496      -281.5425
  45   2.0000     -10.345979      -281.5284
  46   2.0000     -10.345466      -281.5144
  47   2.0000     -10.345419      -281.5132
  48   2.0000     -10.344433      -281.4863
  49   2.0000     -10.341075      -281.3950
  50   2.0000     -10.340458      -281.3782
  51   2.0000     -10.339170      -281.3431
  52   2.0000     -10.338781      -281.3325
  53   2.0000     -10.336541      -281.2716
  54   2.0000     -10.336318      -281.2655
  55   2.0000     -10.328391      -281.0498
  56   2.0000     -10.325344      -280.9669
  57   2.0000     -10.324411      -280.9415
  58   2.0000     -10.323163      -280.9076
  59   2.0000     -10.323077      -280.9052
  60   2.0000     -10.321820      -280.8710
  61   2.0000     -10.318606      -280.7836
  62   2.0000     -10.317756      -280.7604
  63   2.0000     -10.317718      -280.7594
  64   2.0000     -10.316716      -280.7321
  65   2.0000     -10.314033      -280.6591
  66   2.0000     -10.314026      -280.6589
  67   2.0000     -10.313204      -280.6365
  68   2.0000     -10.312869      -280.6274
  69   2.0000     -10.311750      -280.5970
  70   2.0000     -10.311517      -280.5906
  71   2.0000     -10.301787      -280.3259
  72   2.0000     -10.294826      -280.1365
  73   2.0000     -10.294102      -280.1168
  74   2.0000     -10.293881      -280.1107
  75   2.0000     -10.287018      -279.9240
  76   2.0000      -9.604763      -261.3589
  77   2.0000      -9.603087      -261.3133
  78   2.0000      -8.140608      -221.5172
  79   2.0000      -8.112237      -220.7452
  80   2.0000      -8.104582      -220.5369
  81   2.0000      -8.099430      -220.3967
  82   2.0000      -8.098535      -220.3723
  83   2.0000      -7.364757      -200.4052
  84   2.0000      -7.363114      -200.3605
  85   2.0000      -7.354803      -200.1344
  86   2.0000      -7.354143      -200.1164
  87   2.0000      -7.353101      -200.0881
  88   2.0000      -7.352449      -200.0703
  89   2.0000      -6.102400      -166.0548
  90   2.0000      -6.094538      -165.8408
  91   2.0000      -6.092312      -165.7802
  92   2.0000      -6.072106      -165.2304
  93   2.0000      -6.067953      -165.1174
  94   2.0000      -6.064678      -165.0283
  95   2.0000      -6.063880      -165.0066
  96   2.0000      -6.060599      -164.9173
  97   2.0000      -6.059566      -164.8892
  98   2.0000      -6.058688      -164.8653
  99   2.0000      -6.055745      -164.7852
 100   2.0000      -6.054746      -164.7580
 101   2.0000      -6.054606      -164.7542
 102   2.0000      -6.051215      -164.6619
 103   2.0000      -6.049569      -164.6172
 104   2.0000      -1.178306       -32.0633
 105   2.0000      -1.170020       -31.8379
 106   2.0000      -1.156820       -31.4787
 107   2.0000      -1.148748       -31.2590
 108   2.0000      -1.141815       -31.0704
 109   2.0000      -1.072559       -29.1858
 110   2.0000      -1.057322       -28.7712
 111   2.0000      -1.057188       -28.7675
 112   2.0000      -1.054428       -28.6925
 113   2.0000      -1.050374       -28.5821
 114   2.0000      -1.046964       -28.4893
 115   2.0000      -1.034857       -28.1599
 116   2.0000      -1.032573       -28.0977
 117   2.0000      -1.028892       -27.9976
 118   2.0000      -1.025146       -27.8956
 119   2.0000      -1.011108       -27.5137
 120   2.0000      -1.004682       -27.3388
 121   2.0000      -1.000631       -27.2286
 122   2.0000      -0.994168       -27.0527
 123   2.0000      -0.988117       -26.8880
 124   2.0000      -0.981320       -26.7031
 125   2.0000      -0.973674       -26.4950
 126   2.0000      -0.951163       -25.8825
 127   2.0000      -0.942798       -25.6548
 128   2.0000      -0.940583       -25.5946
 129   2.0000      -0.936350       -25.4794
 130   2.0000      -0.931625       -25.3508
 131   2.0000      -0.928540       -25.2669
 132   2.0000      -0.924172       -25.1480
 133   2.0000      -0.911112       -24.7926
 134   2.0000      -0.901986       -24.5443
 135   2.0000      -0.897541       -24.4233
 136   2.0000      -0.895307       -24.3625
 137   2.0000      -0.889925       -24.2161
 138   2.0000      -0.880403       -23.9570
 139   2.0000      -0.868063       -23.6212
 140   2.0000      -0.864302       -23.5189
 141   2.0000      -0.854082       -23.2408
 142   2.0000      -0.851608       -23.1734
 143   2.0000      -0.844760       -22.9871
 144   2.0000      -0.841026       -22.8855
 145   2.0000      -0.833512       -22.6810
 146   2.0000      -0.827819       -22.5261
 147   2.0000      -0.809362       -22.0239
 148   2.0000      -0.805399       -21.9160
 149   2.0000      -0.798896       -21.7391
 150   2.0000      -0.789728       -21.4896
 151   2.0000      -0.785216       -21.3668
 152   2.0000      -0.782338       -21.2885
 153   2.0000      -0.763444       -20.7744
 154   2.0000      -0.760601       -20.6970
 155   2.0000      -0.752857       -20.4863
 156   2.0000      -0.747661       -20.3449
 157   2.0000      -0.740339       -20.1457
 158   2.0000      -0.735608       -20.0169
 159   2.0000      -0.735097       -20.0030
 160   2.0000      -0.734435       -19.9850
 161   2.0000      -0.727271       -19.7900
 162   2.0000      -0.717962       -19.5367
 163   2.0000      -0.710099       -19.3228
 164   2.0000      -0.703740       -19.1497
 165   2.0000      -0.693846       -18.8805
 166   2.0000      -0.691794       -18.8247
 167   2.0000      -0.688129       -18.7249
 168   2.0000      -0.682609       -18.5747
 169   2.0000      -0.677550       -18.4371
 170   2.0000      -0.670144       -18.2355
 171   2.0000      -0.661739       -18.0068
 172   2.0000      -0.658326       -17.9140
 173   2.0000      -0.654497       -17.8098
 174   2.0000      -0.650195       -17.6927
 175   2.0000      -0.649137       -17.6639
 176   2.0000      -0.643393       -17.5076
 177   2.0000      -0.640576       -17.4309
 178   2.0000      -0.634674       -17.2704
 179   2.0000      -0.628969       -17.1151
 180   2.0000      -0.624685       -16.9985
 181   2.0000      -0.622311       -16.9339
 182   2.0000      -0.621312       -16.9068
 183   2.0000      -0.615215       -16.7408
 184   2.0000      -0.610452       -16.6112
 185   2.0000      -0.609311       -16.5802
 186   2.0000      -0.598805       -16.2943
 187   2.0000      -0.594559       -16.1788
 188   2.0000      -0.593906       -16.1610
 189   2.0000      -0.590508       -16.0685
 190   2.0000      -0.588744       -16.0206
 191   2.0000      -0.587110       -15.9761
 192   2.0000      -0.586169       -15.9505
 193   2.0000      -0.581835       -15.8325
 194   2.0000      -0.578160       -15.7325
 195   2.0000      -0.574953       -15.6453
 196   2.0000      -0.573632       -15.6093
 197   2.0000      -0.571822       -15.5601
 198   2.0000      -0.570000       -15.5105
 199   2.0000      -0.568876       -15.4799
 200   2.0000      -0.565839       -15.3973
 201   2.0000      -0.561897       -15.2900
 202   2.0000      -0.558085       -15.1863
 203   2.0000      -0.555617       -15.1191
 204   2.0000      -0.553198       -15.0533
 205   2.0000      -0.550607       -14.9828
 206   2.0000      -0.549253       -14.9459
 207   2.0000      -0.544158       -14.8073
 208   2.0000      -0.542228       -14.7548
 209   2.0000      -0.541170       -14.7260
 210   2.0000      -0.537518       -14.6266
 211   2.0000      -0.534732       -14.5508
 212   2.0000      -0.530308       -14.4304
 213   2.0000      -0.528924       -14.3928
 214   2.0000      -0.527163       -14.3448
 215   2.0000      -0.524543       -14.2736
 216   2.0000      -0.522486       -14.2176
 217   2.0000      -0.518823       -14.1179
 218   2.0000      -0.516032       -14.0419
 219   2.0000      -0.513588       -13.9754
 220   2.0000      -0.512680       -13.9507
 221   2.0000      -0.508941       -13.8490
 222   2.0000      -0.507423       -13.8077
 223   2.0000      -0.505751       -13.7622
 224   2.0000      -0.504425       -13.7261
 225   2.0000      -0.503290       -13.6952
 226   2.0000      -0.501579       -13.6487
 227   2.0000      -0.497682       -13.5426
 228   2.0000      -0.492881       -13.4120
 229   2.0000      -0.489027       -13.3071
 230   2.0000      -0.486995       -13.2518
 231   2.0000      -0.486511       -13.2386
 232   2.0000      -0.484740       -13.1904
 233   2.0000      -0.483080       -13.1453
 234   2.0000      -0.481633       -13.1059
 235   2.0000      -0.481119       -13.0919
 236   2.0000      -0.480066       -13.0632
 237   2.0000      -0.478278       -13.0146
 238   2.0000      -0.476438       -12.9645
 239   2.0000      -0.474074       -12.9002
 240   2.0000      -0.473543       -12.8857
 241   2.0000      -0.469546       -12.7770
 242   2.0000      -0.466243       -12.6871
 243   2.0000      -0.465321       -12.6620
 244   2.0000      -0.464509       -12.6399
 245   2.0000      -0.463964       -12.6251
 246   2.0000      -0.463091       -12.6013
 247   2.0000      -0.461089       -12.5469
 248   2.0000      -0.458759       -12.4835
 249   2.0000      -0.457774       -12.4567
 250   2.0000      -0.454560       -12.3692
 251   2.0000      -0.454133       -12.3576
 252   2.0000      -0.450922       -12.2702
 253   2.0000      -0.449917       -12.2429
 254   2.0000      -0.448158       -12.1950
 255   2.0000      -0.446925       -12.1614
 256   2.0000      -0.445973       -12.1355
 257   2.0000      -0.444383       -12.0923
 258   2.0000      -0.442838       -12.0502
 259   2.0000      -0.438433       -11.9304
 260   2.0000      -0.437538       -11.9060
 261   2.0000      -0.435145       -11.8409
 262   2.0000      -0.430553       -11.7159
 263   2.0000      -0.428300       -11.6546
 264   2.0000      -0.426483       -11.6052
 265   2.0000      -0.425045       -11.5661
 266   2.0000      -0.420307       -11.4371
 267   2.0000      -0.418488       -11.3876
 268   2.0000      -0.417741       -11.3673
 269   2.0000      -0.396845       -10.7987
 270   2.0000      -0.396365       -10.7856
 271   2.0000      -0.394237       -10.7277
 272   2.0000      -0.383938       -10.4475
 273   2.0000      -0.376804       -10.2534
 274   2.0000      -0.372541       -10.1373
 275   2.0000      -0.368996       -10.0409
 276   2.0000      -0.365837        -9.9549
 277   2.0000      -0.362273        -9.8579
 278   2.0000      -0.348535        -9.4841
 279   2.0000      -0.347394        -9.4531
 280   2.0000      -0.344671        -9.3790
 281   2.0000      -0.338802        -9.2193
 282   2.0000      -0.332773        -9.0552
 283   2.0000      -0.319494        -8.6939
 284   2.0000      -0.305454        -8.3118
 285   2.0000      -0.303775        -8.2661
 286   2.0000      -0.266254        -7.2451
 287   0.0000      -0.075778        -2.0620
 288   0.0000      -0.062630        -1.7043
 289   0.0000      -0.046355        -1.2614
 290   0.0000      -0.034086        -0.9275
 291   0.0000      -0.015691        -0.4270

MULLIKEN ATOMIC CHARGES
-----------------------
   0 C :    0.223404
   1 O :   -0.215998
   2 C :   -0.080812
   3 C :   -0.078909
   4 C :    0.072703
   5 C :    0.055933
   6 C :   -0.073055
   7 C :   -0.011004
   8 C :    0.284305
   9 C :   -0.389549
  10 C :   -0.120718
  11 N :    0.090000
  12 C :   -0.125204
  13 N :    0.101182
  14 C :   -0.139433
  15 C :   -0.002882
  16 C :   -0.107567
  17 S :    0.180197
  18 C :   -0.014132
  19 C :   -0.094150
  20 C :   -0.085627
  21 C :    0.001852
  22 S :    0.198423
  23 C :   -0.054697
  24 C :    0.035545
  25 N :   -0.241527
  26 C :    0.098266
  27 C :   -0.098662
  28 C :    0.009659
  29 N :   -0.296532
  30 S :    0.478871
  31 N :   -0.301535
  32 C :    0.022272
  33 C :   -0.107655
  34 C :    0.087114
  35 N :   -0.253743
  36 C :    0.035431
  37 C :   -0.050780
  38 S :    0.204988
  39 C :   -0.121395
  40 C :   -0.040304
  41 S :    0.156715
  42 C :   -0.170899
  43 C :   -0.005976
  44 C :    0.017510
  45 C :    0.029247
  46 C :   -0.153448
  47 C :    0.263923
  48 C :   -0.356052
  49 C :   -0.126916
  50 N :    0.108831
  51 C :   -0.149709
  52 N :    0.119846
  53 C :    0.024543
  54 C :   -0.005147
  55 C :    0.033184
  56 Cl:   -0.037429
  57 C :    0.041608
  58 Cl:   -0.044127
  59 C :   -0.009331
  60 C :   -0.068674
  61 C :    0.207760
  62 O :   -0.167727
  63 C :    0.035100
  64 C :    0.061354
  65 C :    0.000243
  66 C :    0.000079
  67 C :   -0.097659
  68 C :    0.006168
  69 C :    0.001230
  70 C :   -0.094437
  71 C :    0.104299
  72 C :   -0.016453
  73 C :   -0.050005
  74 C :   -0.039509
  75 C :   -0.055891
  76 H :    0.010411
  77 H :    0.018351
  78 H :   -0.000976
  79 H :    0.039898
  80 H :    0.064697
  81 H :    0.056837
  82 H :    0.029189
  83 H :    0.062510
  84 H :    0.030637
  85 H :    0.030227
  86 H :    0.060573
  87 H :    0.064925
  88 H :    0.020236
  89 H :    0.056277
  90 H :    0.043808
  91 H :    0.040472
  92 H :    0.024056
  93 H :    0.021338
  94 H :    0.018128
  95 H :    0.017682
  96 H :    0.025840
  97 H :    0.042494
  98 H :    0.036569
  99 H :    0.053231
 100 H :    0.034085
 101 H :    0.055045
 102 H :    0.056681
 103 H :    0.055456
 104 H :    0.052379
 105 H :    0.050737
 106 H :    0.053700
 107 H :    0.036801
 108 H :    0.037318
 109 H :    0.063858
Sum of atomic charges:   -0.0000000

LOEWDIN ATOMIC CHARGES
----------------------
   0 C :    0.092173
   1 O :   -0.179385
   2 C :   -0.045703
   3 C :    0.004760
   4 C :    0.002653
   5 C :    0.004806
   6 C :   -0.005132
   7 C :   -0.016072
   8 C :    0.084565
   9 C :   -0.157789
  10 C :   -0.011620
  11 N :   -0.065541
  12 C :   -0.013413
  13 N :   -0.062957
  14 C :   -0.128955
  15 C :    0.062570
  16 C :   -0.197062
  17 S :    0.477828
  18 C :   -0.196032
  19 C :   -0.198670
  20 C :   -0.012078
  21 C :   -0.034975
  22 S :    0.413373
  23 C :   -0.167271
  24 C :   -0.044834
  25 N :    0.038672
  26 C :    0.014236
  27 C :   -0.083381
  28 C :   -0.052117
  29 N :   -0.286647
  30 S :    0.597240
  31 N :   -0.287335
  32 C :   -0.054037
  33 C :   -0.078959
  34 C :    0.012608
  35 N :    0.027271
  36 C :   -0.043751
  37 C :   -0.169348
  38 S :    0.435889
  39 C :   -0.191776
  40 C :   -0.191007
  41 S :    0.416373
  42 C :   -0.187128
  43 C :   -0.002690
  44 C :   -0.031933
  45 C :    0.061266
  46 C :   -0.117772
  47 C :    0.074908
  48 C :   -0.142745
  49 C :   -0.015443
  50 N :   -0.049819
  51 C :   -0.019506
  52 N :   -0.050472
  53 C :   -0.017303
  54 C :   -0.010347
  55 C :   -0.130389
  56 Cl:    0.157810
  57 C :   -0.134186
  58 Cl:    0.154654
  59 C :    0.001116
  60 C :   -0.047943
  61 C :    0.090485
  62 O :   -0.133201
  63 C :    0.036153
  64 C :    0.036735
  65 C :   -0.001121
  66 C :   -0.003081
  67 C :   -0.023764
  68 C :   -0.019353
  69 C :   -0.023263
  70 C :   -0.024626
  71 C :   -0.003264
  72 C :   -0.045714
  73 C :   -0.067300
  74 C :   -0.060743
  75 C :   -0.057410
  76 H :    0.039332
  77 H :    0.040652
  78 H :    0.047053
  79 H :    0.033770
  80 H :    0.041009
  81 H :    0.042118
  82 H :    0.030769
  83 H :    0.047212
  84 H :    0.047495
  85 H :    0.049842
  86 H :    0.031355
  87 H :    0.035986
  88 H :    0.029024
  89 H :    0.028704
  90 H :    0.032967
  91 H :    0.031727
  92 H :    0.023840
  93 H :    0.024718
  94 H :    0.023074
  95 H :    0.021510
  96 H :    0.018827
  97 H :    0.026878
  98 H :    0.028429
  99 H :    0.034303
 100 H :    0.025714
 101 H :    0.027038
 102 H :    0.024562
 103 H :    0.038608
 104 H :    0.035345
 105 H :    0.036361
 106 H :    0.027320
 107 H :    0.013924
 108 H :    0.029053
 109 H :    0.029705

  Mayer bond orders larger than 0.100000
B(  0-C ,  1-O ) :   2.1000 B(  0-C ,  2-C ) :   0.9790 B(  0-C , 14-C ) :   0.9745
B(  2-C ,  3-C ) :   1.3580 B(  2-C ,  7-C ) :   1.3460 B(  3-C ,  4-C ) :   1.3827
B(  3-C , 76-H ) :   1.0289 B(  4-C ,  5-C ) :   1.3929 B(  4-C , 66-C ) :   0.9579
B(  5-C ,  6-C ) :   1.4198 B(  5-C , 65-C ) :   0.9598 B(  6-C ,  7-C ) :   1.3556
B(  6-C , 77-H ) :   0.9979 B(  7-C ,  8-C ) :   1.0049 B(  8-C ,  9-C ) :   1.6229
B(  8-C , 14-C ) :   1.1002 B(  9-C , 10-C ) :   1.1387 B(  9-C , 12-C ) :   1.1362
B( 10-C , 11-N ) :   2.9544 B( 12-C , 13-N ) :   2.9668 B( 14-C , 15-C ) :   1.5388
B( 15-C , 16-C ) :   1.3018 B( 15-C , 78-H ) :   0.9277 B( 16-C , 17-S ) :   1.0463
B( 16-C , 20-C ) :   1.3966 B( 17-S , 18-C ) :   1.0322 B( 18-C , 19-C ) :   1.4134
B( 18-C , 24-C ) :   1.3121 B( 19-C , 20-C ) :   1.4473 B( 19-C , 22-S ) :   1.0201
B( 20-C , 21-C ) :   1.0539 B( 21-C , 72-C ) :   1.0882 B( 21-C , 79-H ) :   0.9330
B( 21-C , 80-H ) :   0.9129 B( 22-S , 23-C ) :   1.0237 B( 23-C , 24-C ) :   1.4167
B( 23-C , 27-C ) :   1.3801 B( 24-C , 25-N ) :   1.1392 B( 25-N , 26-C ) :   1.1815
B( 25-N , 63-C ) :   0.9231 B( 26-C , 27-C ) :   1.3789 B( 26-C , 34-C ) :   1.1408
B( 27-C , 28-C ) :   1.1339 B( 28-C , 29-N ) :   1.6198 B( 28-C , 32-C ) :   1.1384
B( 29-N , 30-S ) :   1.2285 B( 29-N , 31-N ) :   0.1301 B( 30-S , 31-N ) :   1.2287
B( 31-N , 32-C ) :   1.6197 B( 32-C , 33-C ) :   1.1307 B( 33-C , 34-C ) :   1.4051
B( 33-C , 37-C ) :   1.3648 B( 34-C , 35-N ) :   1.1449 B( 35-N , 36-C ) :   1.1379
B( 35-N , 64-C ) :   0.9303 B( 36-C , 37-C ) :   1.4304 B( 36-C , 40-C ) :   1.3195
B( 37-C , 38-S ) :   1.0292 B( 38-S , 39-C ) :   1.0401 B( 39-C , 40-C ) :   1.4480
B( 39-C , 43-C ) :   1.3639 B( 40-C , 41-S ) :   1.0680 B( 41-S , 42-C ) :   1.0435
B( 42-C , 43-C ) :   1.4994 B( 42-C , 45-C ) :   1.1856 B( 43-C , 44-C ) :   1.0500
B( 44-C , 75-C ) :   1.0802 B( 44-C , 81-H ) :   0.9357 B( 44-C , 82-H ) :   0.9249
B( 45-C , 46-C ) :   1.6066 B( 45-C , 83-H ) :   0.9329 B( 46-C , 47-C ) :   1.0855
B( 46-C , 61-C ) :   0.9684 B( 47-C , 48-C ) :   1.6583 B( 47-C , 53-C ) :   1.0107
B( 48-C , 49-C ) :   1.1262 B( 48-C , 51-C ) :   1.1319 B( 49-C , 50-N ) :   2.9702
B( 51-C , 52-N ) :   2.9929 B( 53-C , 54-C ) :   1.3649 B( 53-C , 60-C ) :   1.3291
B( 54-C , 55-C ) :   1.3717 B( 54-C , 84-H ) :   0.9855 B( 55-C , 56-Cl) :   1.0792
B( 55-C , 57-C ) :   1.4056 B( 57-C , 58-Cl) :   1.0534 B( 57-C , 59-C ) :   1.3544
B( 59-C , 60-C ) :   1.3750 B( 59-C , 85-H ) :   1.0125 B( 60-C , 61-C ) :   0.9367
B( 61-C , 62-O ) :   2.1673 B( 63-C , 73-C ) :   1.0776 B( 63-C , 86-H ) :   0.9580
B( 63-C , 87-H ) :   0.9513 B( 64-C , 74-C ) :   1.0994 B( 64-C , 88-H ) :   0.9487
B( 64-C , 89-H ) :   0.9474 B( 65-C , 66-C ) :   1.0256 B( 65-C , 67-C ) :   0.9625
B( 65-C , 90-H ) :   0.8818 B( 66-C , 70-C ) :   0.9615 B( 66-C , 91-H ) :   0.8790
B( 67-C , 68-C ) :   0.9630 B( 67-C , 71-C ) :   1.0108 B( 67-C , 92-H ) :   0.9754
B( 68-C , 69-C ) :   1.8381 B( 68-C , 93-H ) :   1.0093 B( 69-C , 70-C ) :   0.9621
B( 69-C , 94-H ) :   1.0081 B( 70-C , 71-C ) :   1.0093 B( 70-C , 95-H ) :   0.9753
B( 71-C , 96-H ) :   0.9564 B( 71-C , 97-H ) :   0.9587 B( 72-C , 98-H ) :   0.9698
B( 72-C , 99-H ) :   0.9716 B( 72-C ,100-H ) :   0.9738 B( 73-C ,101-H ) :   0.9616
B( 73-C ,102-H ) :   0.9557 B( 73-C ,103-H ) :   0.9700 B( 74-C ,104-H ) :   0.9687
B( 74-C ,105-H ) :   0.9681 B( 74-C ,106-H ) :   0.9633 B( 75-C ,107-H ) :   0.9679
B( 75-C ,108-H ) :   0.9682 B( 75-C ,109-H ) :   0.9633

-----------------------------------------------------------------------------
         ABSORPTION SPECTRUM VIA TRANSITION ELECTRIC DIPOLE MOMENTS
-----------------------------------------------------------------------------
State   Energy  Wavelength   fosc         T2         TX        TY        TZ
        (cm-1)    (nm)                  (au**2)     (au)      (au)      (au)
-----------------------------------------------------------------------------
   0   19697.5    507.7   2.827890515  47.26363  -1.54408   3.75053   5.55094
   1   25218.0    396.5   1.019530384  13.30963  -3.27737  -1.39209  -0.79408
   2   28387.7    352.3   0.012097200   0.14029   0.06859   0.29593  -0.21911
   3   28660.2    348.9   0.119660488   1.37451  -0.75345  -0.60737  -0.66175
   4   30148.6    331.7   0.080204349   0.87580  -0.84837   0.36582   0.14918
   5   30430.5    328.6   0.173677822   1.87893   0.25008   0.52194   1.24257
   6   31181.6    320.7   0.013388677   0.14136  -0.13397   0.20778   0.28326
   7   31510.5    317.4   0.083487613   0.87225  -0.78312  -0.47659   0.17840
   8   32596.4    306.8   0.010545624   0.10651  -0.17169  -0.12203   0.24928
   9   34000.9    294.1   0.079704432   0.77173  -0.80339   0.34999   0.06164
  10   34609.0    288.9   0.355462079   3.38127   1.39791  -1.09453   0.47866
  11   35248.9    283.7   0.368620522   3.44278   1.83765   0.14324   0.21288
  12   35839.9    279.0   0.047052513   0.43221   0.33043   0.42824  -0.37368
  13   35901.7    278.5   0.087885489   0.80589   0.02706  -0.28144   0.85203
  14   36495.0    274.0   0.203171943   1.83276  -0.83580  -0.43254   0.97320
  15   37168.4    269.0   0.743363466   6.58420   2.48686  -0.55086  -0.31031
  16   37629.7    265.7   0.382679915   3.34796   0.15822  -1.67433   0.72079
  17   38423.8    260.3   0.064238820   0.55039  -0.19115  -0.18844   0.69163
  18   39695.9    251.9   0.097803464   0.81112  -0.76227  -0.26911   0.39705
  19   39982.3    250.1   0.202039834   1.66358   0.34630  -1.13806   0.49847
  20   40127.4    249.2   0.305761766   2.50852   1.12140   0.95317   0.58519

Dispersion correction           -0.072613263
FINAL SINGLE POINT ENERGY     -5764.636745760295

DIPOLE MOMENT
-------------
                                X             Y             Z
Electronic contribution:      7.30291      40.84027     110.83995
Nuclear contribution   :     -8.88718     -41.12521    -111.53899
                        -----------------------------------------
Total Dipole Moment    :     -1.58427      -0.28494      -0.69903
                        -----------------------------------------
Magnitude (a.u.)       :      1.75492
Magnitude (Debye)      :      4.46066

Rotational constants in cm-1:     0.001062     0.000229     0.000201
Rotational constants in MHz :    31.851563     6.875076     6.026151

                             ****ORCA TERMINATED NORMALLY****
TOTAL RUN TIME: 0 days 0 hours 17 minutes 28 seconds 783 msec
