                         Program Version 4.2.0 -  RELEASE  -
|  1> # ORCA input file
|  2> # SCF done       -219.989316217192          0.000685939772
|  3> ! wb97x-d3 def2-SVP def2/J RIJCOSX Grid4 TightSCF
|  4> %maxcore 5000
|  5> %tddft
|  6>     Mode sTDA
|  7>     Ethresh 5.0
|  8>     maxcore 5000
|  9> end
| 10>
| 11> %pal
| 12>   nprocs 6
| 13>   end
| 14> * xyz 0 1
| 15>    C        0.19794        -2.45214         0.28668
| 16>    C       -0.96657        -1.71747         0.32649
| 17>    C       -0.78569        -0.33516         0.16981
| 18>    C        0.55032        -0.00283        -0.02377
| 19>    S        1.57051        -1.41093         0.03736
| 20>    C       -1.88724         0.62288         0.26889
| 21>    C        1.16353         1.26697        -0.25132
| 22>    C       -1.72856         1.81804         0.94681
| 23>    C       -2.77219         2.74335         0.99052
| 24>    C       -3.98576         2.42988         0.40122
| 25>    C       -4.16119         1.20403        -0.24298
| 26>    C       -3.11068         0.30482        -0.32085
| 27>    S        2.73327         1.56043         0.43956
| 28>    C        2.75940         3.18391        -0.18988
| 29>    C        1.60526         3.44880        -0.89435
| 30>    C        0.70501         2.37506        -0.95245
| 31>    C       -0.52427         2.43010        -1.74774
| 32>    C       -1.34050         3.54892        -1.66741
| 33>    C       -2.49946         3.63001        -2.43365
| 34>    C       -2.80492         2.61393        -3.33354
| 35>    C       -1.96467         1.51034        -3.43973
| 36>    C       -0.83890         1.40626        -2.62984
| 37>    C        3.86908         4.03594         0.02784
| 38>    C        5.03786         3.71275         0.71194
| 39>    C        5.93863         4.75355         0.74207
| 40>    C        5.49599         5.90927         0.08676
| 41>    S        3.89749         5.65812        -0.57530
| 42>    C        6.28319         7.06255         0.00447
| 43>    C        6.03223         8.27552        -0.59218
| 44>    C        6.93730         9.40606        -0.62654
| 45>    C        6.26343        10.48274        -1.35588
| 46>    C        4.99432        10.03268        -1.75636
| 47>    C        4.80190         8.64001        -1.29836
| 48>    O        3.81150         7.95600        -1.48028
| 49>    C        8.19713         9.48893        -0.09237
| 50>    C        9.01727        10.63477        -0.17365
| 51>    C        8.86726         8.46521         0.61031
| 52>    N        9.48586         7.68891         1.18840
| 53>    N        9.73498        11.52987        -0.20524
| 54>    C        6.67056        11.76830        -1.67608
| 55>    C        5.79331        12.57094        -2.39086
| 56>    C        4.53526        12.11430        -2.78343
| 57>    C        4.12041        10.83058        -2.46722
| 58>    F        3.72090        12.92362        -3.47221
| 59>    F        6.16839        13.81493        -2.70942
| 60>    C        0.34583        -3.85299         0.42794
| 61>    C        1.54082        -4.56577         0.46780
| 62>    C        1.34384        -5.92017         0.62036
| 63>    C       -0.00314        -6.29598         0.69512
| 64>    S       -1.03316        -4.88945         0.56980
| 65>    C       -0.39746        -7.62809         0.85582
| 66>    C       -1.65271        -8.18498         0.93040
| 67>    C       -1.94519        -9.59327         1.10372
| 68>    C       -3.40191        -9.74372         1.07561
| 69>    C       -3.98393        -8.47596         0.91021
| 70>    C       -2.91781        -7.45574         0.82069
| 71>    O       -3.08441        -6.25770         0.67998
| 72>    C       -1.05372       -10.61983         1.27887
| 73>    C       -1.42658       -11.97052         1.44868
| 74>    C        0.35111       -10.49676         1.32510
| 75>    N        1.49859       -10.48731         1.37446
| 76>    N       -1.66131       -13.08505         1.58990
| 77>    C       -4.21115       -10.86421         1.17807
| 78>    C       -5.58530       -10.68442         1.11170
| 79>    C       -6.15283        -9.42089         0.94847
| 80>    C       -5.35101        -8.29556         0.84575
| 81>    F       -7.48435        -9.29367         0.88876
| 82>    F       -6.38271       -11.75427         1.20596
| 83>    O       -2.49981         3.91137         1.61855
| 84>    O       -5.40690         1.00659        -0.75775
| 85>    C       -3.42249         4.97977         1.49207
| 86>    C       -2.78949         6.21258         2.11762
| 87>    C       -5.76946        -0.26978        -1.24960
| 88>    C       -5.37648        -0.47616        -2.70887
| 89>    O       -2.17492         0.47684        -4.30052
| 90>    O       -3.24479         4.75052        -2.23858
| 91>    C       -4.43200         4.95337        -2.98131
| 92>    C       -5.62567         4.18708        -2.41766
| 93>    C       -3.05605         0.66072        -5.39432
| 94>    C       -2.90804        -0.54200        -6.31269
| 95>    H       -1.92270        -2.17652         0.50523
| 96>    H       -0.80244         2.06482         1.43894
| 97>    H       -4.82627         3.10191         0.42626
| 98>    H       -3.20220        -0.62732        -0.85250
| 99>    H        1.43383         4.39085        -1.38412
|100>    H       -1.11142         4.35322        -0.98800
|101>    H       -3.68987         2.66935        -3.94420
|102>    H       -0.20846         0.53750        -2.72736
|103>    H        5.20162         2.74770         1.15856
|104>    H        6.90251         4.70625         1.21771
|105>    H        7.24257         6.95296         0.49541
|106>    H        7.63041        12.17063        -1.39739
|107>    H        3.14904        10.47260        -2.76869
|108>    H        2.50328        -4.09096         0.39189
|109>    H        2.13749        -6.64414         0.68014
|110>    H        0.44101        -8.31050         0.92462
|111>    H       -3.82523       -11.86218         1.30438
|112>    H       -5.78479        -7.31658         0.71924
|113>    H       -3.63547         5.15679         0.42954
|114>    H       -4.35991         4.73264         2.00915
|115>    H       -1.86134         6.45340         1.60682
|116>    H       -3.46842         7.05676         2.03899
|117>    H       -2.56979         6.02725         3.16548
|118>    H       -5.34581        -1.05770        -0.61658
|119>    H       -6.85945        -0.30055        -1.15549
|120>    H       -5.70342        -1.45836        -3.03949
|121>    H       -4.29958        -0.40097        -2.83584
|122>    H       -5.85776         0.27907        -3.32635
|123>    H       -4.61616         6.02965        -2.91148
|124>    H       -4.27035         4.70571        -4.03732
|125>    H       -5.88085         4.56816        -1.43233
|126>    H       -6.48401         4.31408        -3.07219
|127>    H       -5.40258         3.12761        -2.32153
|128>    H       -4.09482         0.73631        -5.04653
|129>    H       -2.79609         1.58474        -5.92872
|130>    H       -3.16658        -1.45088        -5.77663
|131>    H       -3.56463        -0.43441        -7.17118
|132>    H       -1.88054        -0.62303        -6.65594
|133> *
|134>
|135>                          ****END OF INPUT****

CARTESIAN COORDINATES (ANGSTROEM)
---------------------------------
  C      0.197940   -2.452140    0.286680
  C     -0.966570   -1.717470    0.326490
  C     -0.785690   -0.335160    0.169810
  C      0.550320   -0.002830   -0.023770
  S      1.570510   -1.410930    0.037360
  C     -1.887240    0.622880    0.268890
  C      1.163530    1.266970   -0.251320
  C     -1.728560    1.818040    0.946810
  C     -2.772190    2.743350    0.990520
  C     -3.985760    2.429880    0.401220
  C     -4.161190    1.204030   -0.242980
  C     -3.110680    0.304820   -0.320850
  S      2.733270    1.560430    0.439560
  C      2.759400    3.183910   -0.189880
  C      1.605260    3.448800   -0.894350
  C      0.705010    2.375060   -0.952450
  C     -0.524270    2.430100   -1.747740
  C     -1.340500    3.548920   -1.667410
  C     -2.499460    3.630010   -2.433650
  C     -2.804920    2.613930   -3.333540
  C     -1.964670    1.510340   -3.439730
  C     -0.838900    1.406260   -2.629840
  C      3.869080    4.035940    0.027840
  C      5.037860    3.712750    0.711940
  C      5.938630    4.753550    0.742070
  C      5.495990    5.909270    0.086760
  S      3.897490    5.658120   -0.575300
  C      6.283190    7.062550    0.004470
  C      6.032230    8.275520   -0.592180
  C      6.937300    9.406060   -0.626540
  C      6.263430   10.482740   -1.355880
  C      4.994320   10.032680   -1.756360
  C      4.801900    8.640010   -1.298360
  O      3.811500    7.956000   -1.480280
  C      8.197130    9.488930   -0.092370
  C      9.017270   10.634770   -0.173650
  C      8.867260    8.465210    0.610310
  N      9.485860    7.688910    1.188400
  N      9.734980   11.529870   -0.205240
  C      6.670560   11.768300   -1.676080
  C      5.793310   12.570940   -2.390860
  C      4.535260   12.114300   -2.783430
  C      4.120410   10.830580   -2.467220
  F      3.720900   12.923620   -3.472210
  F      6.168390   13.814930   -2.709420
  C      0.345830   -3.852990    0.427940
  C      1.540820   -4.565770    0.467800
  C      1.343840   -5.920170    0.620360
  C     -0.003140   -6.295980    0.695120
  S     -1.033160   -4.889450    0.569800
  C     -0.397460   -7.628090    0.855820
  C     -1.652710   -8.184980    0.930400
  C     -1.945190   -9.593270    1.103720
  C     -3.401910   -9.743720    1.075610
  C     -3.983930   -8.475960    0.910210
  C     -2.917810   -7.455740    0.820690
  O     -3.084410   -6.257700    0.679980
  C     -1.053720  -10.619830    1.278870
  C     -1.426580  -11.970520    1.448680
  C      0.351110  -10.496760    1.325100
  N      1.498590  -10.487310    1.374460
  N     -1.661310  -13.085050    1.589900
  C     -4.211150  -10.864210    1.178070
  C     -5.585300  -10.684420    1.111700
  C     -6.152830   -9.420890    0.948470
  C     -5.351010   -8.295560    0.845750
  F     -7.484350   -9.293670    0.888760
  F     -6.382710  -11.754270    1.205960
  O     -2.499810    3.911370    1.618550
  O     -5.406900    1.006590   -0.757750
  C     -3.422490    4.979770    1.492070
  C     -2.789490    6.212580    2.117620
  C     -5.769460   -0.269780   -1.249600
  C     -5.376480   -0.476160   -2.708870
  O     -2.174920    0.476840   -4.300520
  O     -3.244790    4.750520   -2.238580
  C     -4.432000    4.953370   -2.981310
  C     -5.625670    4.187080   -2.417660
  C     -3.056050    0.660720   -5.394320
  C     -2.908040   -0.542000   -6.312690
  H     -1.922700   -2.176520    0.505230
  H     -0.802440    2.064820    1.438940
  H     -4.826270    3.101910    0.426260
  H     -3.202200   -0.627320   -0.852500
  H      1.433830    4.390850   -1.384120
  H     -1.111420    4.353220   -0.988000
  H     -3.689870    2.669350   -3.944200
  H     -0.208460    0.537500   -2.727360
  H      5.201620    2.747700    1.158560
  H      6.902510    4.706250    1.217710
  H      7.242570    6.952960    0.495410
  H      7.630410   12.170630   -1.397390
  H      3.149040   10.472600   -2.768690
  H      2.503280   -4.090960    0.391890
  H      2.137490   -6.644140    0.680140
  H      0.441010   -8.310500    0.924620
  H     -3.825230  -11.862180    1.304380
  H     -5.784790   -7.316580    0.719240
  H     -3.635470    5.156790    0.429540
  H     -4.359910    4.732640    2.009150
  H     -1.861340    6.453400    1.606820
  H     -3.468420    7.056760    2.038990
  H     -2.569790    6.027250    3.165480
  H     -5.345810   -1.057700   -0.616580
  H     -6.859450   -0.300550   -1.155490
  H     -5.703420   -1.458360   -3.039490
  H     -4.299580   -0.400970   -2.835840
  H     -5.857760    0.279070   -3.326350
  H     -4.616160    6.029650   -2.911480
  H     -4.270350    4.705710   -4.037320
  H     -5.880850    4.568160   -1.432330
  H     -6.484010    4.314080   -3.072190
  H     -5.402580    3.127610   -2.321530
  H     -4.094820    0.736310   -5.046530
  H     -2.796090    1.584740   -5.928720
  H     -3.166580   -1.450880   -5.776630
  H     -3.564630   -0.434410   -7.171180
  H     -1.880540   -0.623030   -6.655940

 Total Charge           Charge          ....    0
 Multiplicity           Mult            ....    1
 Number of Electrons    NEL             ....  586
 Basis Dimension        Dim             .... 1326

ORBITAL ENERGIES
----------------

  NO   OCC          E(Eh)            E(eV)
   0   2.0000     -88.995424     -2421.6886
   1   2.0000     -88.995413     -2421.6883
   2   2.0000     -88.994364     -2421.6598
   3   2.0000     -88.993728     -2421.6424
   4   2.0000     -24.836626      -675.8390
   5   2.0000     -24.834762      -675.7882
   6   2.0000     -24.834530      -675.7819
   7   2.0000     -24.832970      -675.7395
   8   2.0000     -19.280865      -524.6590
   9   2.0000     -19.279413      -524.6195
  10   2.0000     -19.279125      -524.6117
  11   2.0000     -19.273259      -524.4520
  12   2.0000     -19.263910      -524.1976
  13   2.0000     -19.261914      -524.1433
  14   2.0000     -14.456152      -393.3719
  15   2.0000     -14.454770      -393.3343
  16   2.0000     -14.452209      -393.2646
  17   2.0000     -14.450702      -393.2236
  18   2.0000     -10.422298      -283.6052
  19   2.0000     -10.421753      -283.5903
  20   2.0000     -10.420566      -283.5580
  21   2.0000     -10.419940      -283.5410
  22   2.0000     -10.411168      -283.3023
  23   2.0000     -10.409193      -283.2485
  24   2.0000     -10.384664      -282.5811
  25   2.0000     -10.383148      -282.5398
  26   2.0000     -10.380860      -282.4776
  27   2.0000     -10.379235      -282.4333
  28   2.0000     -10.365463      -282.0586
  29   2.0000     -10.364597      -282.0350
  30   2.0000     -10.363390      -282.0022
  31   2.0000     -10.363258      -281.9986
  32   2.0000     -10.362688      -281.9831
  33   2.0000     -10.361940      -281.9627
  34   2.0000     -10.360350      -281.9195
  35   2.0000     -10.358797      -281.8772
  36   2.0000     -10.358414      -281.8668
  37   2.0000     -10.358339      -281.8647
  38   2.0000     -10.357828      -281.8508
  39   2.0000     -10.357570      -281.8438
  40   2.0000     -10.357141      -281.8321
  41   2.0000     -10.356739      -281.8212
  42   2.0000     -10.355773      -281.7949
  43   2.0000     -10.353880      -281.7434
  44   2.0000     -10.353797      -281.7411
  45   2.0000     -10.353460      -281.7320
  46   2.0000     -10.353156      -281.7237
  47   2.0000     -10.352502      -281.7059
  48   2.0000     -10.352198      -281.6976
  49   2.0000     -10.352002      -281.6923
  50   2.0000     -10.351392      -281.6757
  51   2.0000     -10.349029      -281.6114
  52   2.0000     -10.345591      -281.5179
  53   2.0000     -10.344569      -281.4900
  54   2.0000     -10.343743      -281.4676
  55   2.0000     -10.342923      -281.4453
  56   2.0000     -10.339316      -281.3471
  57   2.0000     -10.337573      -281.2997
  58   2.0000     -10.335826      -281.2521
  59   2.0000     -10.334011      -281.2027
  60   2.0000     -10.333952      -281.2011
  61   2.0000     -10.332149      -281.1521
  62   2.0000     -10.327686      -281.0306
  63   2.0000     -10.326639      -281.0021
  64   2.0000     -10.323094      -280.9057
  65   2.0000     -10.322329      -280.8849
  66   2.0000     -10.321853      -280.8719
  67   2.0000     -10.320682      -280.8400
  68   2.0000     -10.316085      -280.7149
  69   2.0000     -10.315595      -280.7016
  70   2.0000     -10.298152      -280.2270
  71   2.0000     -10.298005      -280.2230
  72   2.0000     -10.295973      -280.1677
  73   2.0000     -10.294318      -280.1226
  74   2.0000     -10.292243      -280.0662
  75   2.0000     -10.289102      -279.9807
  76   2.0000     -10.288520      -279.9649
  77   2.0000     -10.288173      -279.9554
  78   2.0000     -10.287674      -279.9418
  79   2.0000     -10.285618      -279.8859
  80   2.0000      -8.109316      -220.6657
  81   2.0000      -8.108268      -220.6372
  82   2.0000      -8.107471      -220.6155
  83   2.0000      -8.105836      -220.5710
  84   2.0000      -6.068803      -165.1405
  85   2.0000      -6.067786      -165.1129
  86   2.0000      -6.067155      -165.0957
  87   2.0000      -6.065542      -165.0518
  88   2.0000      -6.064661      -165.0278
  89   2.0000      -6.063606      -164.9991
  90   2.0000      -6.062498      -164.9689
  91   2.0000      -6.061596      -164.9444
  92   2.0000      -6.060843      -164.9239
  93   2.0000      -6.060530      -164.9154
  94   2.0000      -6.059824      -164.8962
  95   2.0000      -6.058157      -164.8508
  96   2.0000      -1.365959       -37.1696
  97   2.0000      -1.364257       -37.1233
  98   2.0000      -1.350887       -36.7595
  99   2.0000      -1.349174       -36.7129
 100   2.0000      -1.186064       -32.2745
 101   2.0000      -1.183836       -32.2138
 102   2.0000      -1.183640       -32.2085
 103   2.0000      -1.181658       -32.1545
 104   2.0000      -1.179808       -32.1042
 105   2.0000      -1.179701       -32.1013
 106   2.0000      -1.063835       -28.9484
 107   2.0000      -1.062252       -28.9053
 108   2.0000      -1.054429       -28.6925
 109   2.0000      -1.045424       -28.4474
 110   2.0000      -1.044998       -28.4358
 111   2.0000      -1.043721       -28.4011
 112   2.0000      -1.035314       -28.1723
 113   2.0000      -1.034158       -28.1409
 114   2.0000      -1.033241       -28.1159
 115   2.0000      -1.019865       -27.7519
 116   2.0000      -0.999520       -27.1983
 117   2.0000      -0.997824       -27.1522
 118   2.0000      -0.986990       -26.8574
 119   2.0000      -0.978950       -26.6386
 120   2.0000      -0.952753       -25.9257
 121   2.0000      -0.949017       -25.8241
 122   2.0000      -0.941628       -25.6230
 123   2.0000      -0.937075       -25.4991
 124   2.0000      -0.919579       -25.0230
 125   2.0000      -0.915922       -24.9235
 126   2.0000      -0.915228       -24.9046
 127   2.0000      -0.914213       -24.8770
 128   2.0000      -0.911728       -24.8094
 129   2.0000      -0.906526       -24.6678
 130   2.0000      -0.901320       -24.5262
 131   2.0000      -0.892996       -24.2997
 132   2.0000      -0.883765       -24.0485
 133   2.0000      -0.882400       -24.0113
 134   2.0000      -0.880426       -23.9576
 135   2.0000      -0.873021       -23.7561
 136   2.0000      -0.869621       -23.6636
 137   2.0000      -0.851686       -23.1755
 138   2.0000      -0.847723       -23.0677
 139   2.0000      -0.843352       -22.9488
 140   2.0000      -0.842647       -22.9296
 141   2.0000      -0.839232       -22.8367
 142   2.0000      -0.821669       -22.3587
 143   2.0000      -0.815557       -22.1924
 144   2.0000      -0.813754       -22.1434
 145   2.0000      -0.806624       -21.9494
 146   2.0000      -0.778378       -21.1807
 147   2.0000      -0.777648       -21.1609
 148   2.0000      -0.769695       -20.9445
 149   2.0000      -0.767648       -20.8888
 150   2.0000      -0.760384       -20.6911
 151   2.0000      -0.753479       -20.5032
 152   2.0000      -0.753041       -20.4913
 153   2.0000      -0.747570       -20.3424
 154   2.0000      -0.744397       -20.2561
 155   2.0000      -0.734438       -19.9851
 156   2.0000      -0.734097       -19.9758
 157   2.0000      -0.718347       -19.5472
 158   2.0000      -0.717555       -19.5257
 159   2.0000      -0.712789       -19.3960
 160   2.0000      -0.709931       -19.3182
 161   2.0000      -0.702047       -19.1037
 162   2.0000      -0.698519       -19.0077
 163   2.0000      -0.694708       -18.9040
 164   2.0000      -0.692030       -18.8311
 165   2.0000      -0.687140       -18.6980
 166   2.0000      -0.683306       -18.5937
 167   2.0000      -0.681537       -18.5456
 168   2.0000      -0.679827       -18.4990
 169   2.0000      -0.668487       -18.1905
 170   2.0000      -0.666667       -18.1409
 171   2.0000      -0.663912       -18.0660
 172   2.0000      -0.662421       -18.0254
 173   2.0000      -0.656761       -17.8714
 174   2.0000      -0.655115       -17.8266
 175   2.0000      -0.643088       -17.4993
 176   2.0000      -0.641023       -17.4431
 177   2.0000      -0.631810       -17.1924
 178   2.0000      -0.629793       -17.1375
 179   2.0000      -0.626435       -17.0462
 180   2.0000      -0.625701       -17.0262
 181   2.0000      -0.624846       -17.0029
 182   2.0000      -0.624763       -17.0007
 183   2.0000      -0.623512       -16.9666
 184   2.0000      -0.621246       -16.9050
 185   2.0000      -0.609555       -16.5868
 186   2.0000      -0.606652       -16.5078
 187   2.0000      -0.604695       -16.4546
 188   2.0000      -0.603423       -16.4200
 189   2.0000      -0.602466       -16.3939
 190   2.0000      -0.598685       -16.2910
 191   2.0000      -0.593394       -16.1471
 192   2.0000      -0.591259       -16.0890
 193   2.0000      -0.589674       -16.0459
 194   2.0000      -0.588006       -16.0005
 195   2.0000      -0.585277       -15.9262
 196   2.0000      -0.583589       -15.8803
 197   2.0000      -0.580561       -15.7979
 198   2.0000      -0.578818       -15.7504
 199   2.0000      -0.577904       -15.7256
 200   2.0000      -0.576075       -15.6758
 201   2.0000      -0.574562       -15.6346
 202   2.0000      -0.569303       -15.4915
 203   2.0000      -0.568545       -15.4709
 204   2.0000      -0.567520       -15.4430
 205   2.0000      -0.565661       -15.3924
 206   2.0000      -0.563086       -15.3223
 207   2.0000      -0.560724       -15.2581
 208   2.0000      -0.558556       -15.1991
 209   2.0000      -0.555848       -15.1254
 210   2.0000      -0.548573       -14.9274
 211   2.0000      -0.546570       -14.8729
 212   2.0000      -0.543796       -14.7974
 213   2.0000      -0.540648       -14.7118
 214   2.0000      -0.538512       -14.6537
 215   2.0000      -0.537207       -14.6181
 216   2.0000      -0.534701       -14.5499
 217   2.0000      -0.532625       -14.4935
 218   2.0000      -0.531749       -14.4696
 219   2.0000      -0.530956       -14.4480
 220   2.0000      -0.526254       -14.3201
 221   2.0000      -0.524740       -14.2789
 222   2.0000      -0.523493       -14.2450
 223   2.0000      -0.522401       -14.2153
 224   2.0000      -0.520054       -14.1514
 225   2.0000      -0.516672       -14.0594
 226   2.0000      -0.515621       -14.0308
 227   2.0000      -0.512365       -13.9422
 228   2.0000      -0.511958       -13.9311
 229   2.0000      -0.509112       -13.8536
 230   2.0000      -0.507729       -13.8160
 231   2.0000      -0.504904       -13.7391
 232   2.0000      -0.503758       -13.7079
 233   2.0000      -0.502733       -13.6801
 234   2.0000      -0.500123       -13.6090
 235   2.0000      -0.499865       -13.6020
 236   2.0000      -0.496980       -13.5235
 237   2.0000      -0.493714       -13.4346
 238   2.0000      -0.492722       -13.4076
 239   2.0000      -0.491955       -13.3868
 240   2.0000      -0.491196       -13.3661
 241   2.0000      -0.489440       -13.3183
 242   2.0000      -0.487875       -13.2758
 243   2.0000      -0.486643       -13.2422
 244   2.0000      -0.485559       -13.2127
 245   2.0000      -0.481050       -13.0900
 246   2.0000      -0.479893       -13.0586
 247   2.0000      -0.479501       -13.0479
 248   2.0000      -0.478380       -13.0174
 249   2.0000      -0.477172       -12.9845
 250   2.0000      -0.473526       -12.8853
 251   2.0000      -0.470977       -12.8159
 252   2.0000      -0.469739       -12.7823
 253   2.0000      -0.467178       -12.7125
 254   2.0000      -0.465813       -12.6754
 255   2.0000      -0.464930       -12.6514
 256   2.0000      -0.464352       -12.6357
 257   2.0000      -0.460286       -12.5250
 258   2.0000      -0.459382       -12.5004
 259   2.0000      -0.455159       -12.3855
 260   2.0000      -0.453341       -12.3360
 261   2.0000      -0.449338       -12.2271
 262   2.0000      -0.448237       -12.1971
 263   2.0000      -0.446650       -12.1540
 264   2.0000      -0.442921       -12.0525
 265   2.0000      -0.442435       -12.0393
 266   2.0000      -0.441087       -12.0026
 267   2.0000      -0.434233       -11.8161
 268   2.0000      -0.433446       -11.7947
 269   2.0000      -0.429982       -11.7004
 270   2.0000      -0.427851       -11.6424
 271   2.0000      -0.425724       -11.5845
 272   2.0000      -0.420455       -11.4412
 273   2.0000      -0.409989       -11.1564
 274   2.0000      -0.400556       -10.8997
 275   2.0000      -0.389886       -10.6093
 276   2.0000      -0.385799       -10.4981
 277   2.0000      -0.379966       -10.3394
 278   2.0000      -0.374626       -10.1941
 279   2.0000      -0.373887       -10.1740
 280   2.0000      -0.372664       -10.1407
 281   2.0000      -0.370477       -10.0812
 282   2.0000      -0.367746       -10.0069
 283   2.0000      -0.366214        -9.9652
 284   2.0000      -0.355425        -9.6716
 285   2.0000      -0.349175        -9.5015
 286   2.0000      -0.344667        -9.3789
 287   2.0000      -0.330179        -8.9846
 288   2.0000      -0.323839        -8.8121
 289   2.0000      -0.309417        -8.4197
 290   2.0000      -0.306110        -8.3297
 291   2.0000      -0.295015        -8.0278
 292   2.0000      -0.273982        -7.4554
 293   0.0000      -0.079476        -2.1626
 294   0.0000      -0.069976        -1.9041
 295   0.0000      -0.045065        -1.2263
 296   0.0000      -0.041289        -1.1235
 297   0.0000      -0.017273        -0.4700

MULLIKEN ATOMIC CHARGES
-----------------------
   0 C :   -0.062678
   1 C :   -0.059269
   2 C :    0.132687
   3 C :   -0.169248
   4 S :    0.145975
   5 C :    0.043394
   6 C :   -0.169105
   7 C :   -0.052848
   8 C :    0.264223
   9 C :   -0.148807
  10 C :    0.263049
  11 C :   -0.128333
  12 S :    0.144018
  13 C :   -0.063622
  14 C :   -0.050737
  15 C :    0.122810
  16 C :    0.022843
  17 C :   -0.041184
  18 C :    0.266078
  19 C :   -0.201399
  20 C :    0.249213
  21 C :   -0.042132
  22 C :   -0.021752
  23 C :   -0.012162
  24 C :    0.023713
  25 C :   -0.099036
  26 S :    0.196896
  27 C :    0.024778
  28 C :   -0.150952
  29 C :    0.291475
  30 C :    0.023679
  31 C :   -0.055858
  32 C :    0.230739
  33 O :   -0.198536
  34 C :   -0.382155
  35 C :   -0.131967
  36 C :   -0.125773
  37 N :    0.100194
  38 N :    0.109927
  39 C :   -0.085187
  40 C :    0.244468
  41 C :    0.241039
  42 C :   -0.091333
  43 F :   -0.184557
  44 F :   -0.179182
  45 C :   -0.023747
  46 C :   -0.010196
  47 C :    0.020545
  48 C :   -0.097852
  49 S :    0.191691
  50 C :    0.027593
  51 C :   -0.148224
  52 C :    0.285623
  53 C :    0.026632
  54 C :   -0.061731
  55 C :    0.230744
  56 O :   -0.200368
  57 C :   -0.375275
  58 C :   -0.130326
  59 C :   -0.127982
  60 N :    0.098331
  61 N :    0.110811
  62 C :   -0.082686
  63 C :    0.243699
  64 C :    0.241548
  65 C :   -0.090307
  66 F :   -0.184624
  67 F :   -0.179555
  68 O :   -0.343108
  69 O :   -0.346190
  70 C :    0.094094
  71 C :   -0.028858
  72 C :    0.135157
  73 C :   -0.090514
  74 O :   -0.352521
  75 O :   -0.343559
  76 C :    0.123176
  77 C :   -0.066589
  78 C :    0.099015
  79 C :   -0.022935
  80 H :    0.024286
  81 H :    0.001881
  82 H :   -0.013416
  83 H :   -0.016831
  84 H :    0.026534
  85 H :   -0.007120
  86 H :   -0.021706
  87 H :   -0.002849
  88 H :    0.024595
  89 H :    0.039390
  90 H :    0.030113
  91 H :    0.045431
  92 H :    0.040185
  93 H :    0.024611
  94 H :    0.041481
  95 H :    0.030205
  96 H :    0.045625
  97 H :    0.039065
  98 H :    0.033694
  99 H :    0.033431
 100 H :    0.043258
 101 H :    0.035014
 102 H :    0.046422
 103 H :    0.033278
 104 H :    0.043861
 105 H :    0.041236
 106 H :    0.049896
 107 H :    0.047180
 108 H :    0.044047
 109 H :    0.031029
 110 H :    0.043230
 111 H :    0.037489
 112 H :    0.044326
 113 H :    0.026200
 114 H :    0.034622
 115 H :    0.041813
 116 H :    0.035895
 117 H :    0.047699
Sum of atomic charges:    0.0000000

LOEWDIN ATOMIC CHARGES
----------------------
   0 C :   -0.193678
   1 C :   -0.030516
   2 C :   -0.037540
   3 C :   -0.180212
   4 S :    0.438124
   5 C :   -0.007512
   6 C :   -0.181860
   7 C :   -0.054630
   8 C :    0.070187
   9 C :   -0.099187
  10 C :    0.073214
  11 C :   -0.093109
  12 S :    0.437442
  13 C :   -0.193159
  14 C :   -0.026736
  15 C :   -0.037899
  16 C :   -0.007122
  17 C :   -0.060710
  18 C :    0.074761
  19 C :   -0.123125
  20 C :    0.068662
  21 C :   -0.061542
  22 C :   -0.156826
  23 C :   -0.073777
  24 C :    0.000250
  25 C :   -0.199753
  26 S :    0.504799
  27 C :    0.070431
  28 C :   -0.129696
  29 C :    0.080944
  30 C :   -0.018782
  31 C :   -0.049780
  32 C :    0.092573
  33 O :   -0.165846
  34 C :   -0.148115
  35 C :   -0.014531
  36 C :   -0.015164
  37 N :   -0.054797
  38 N :   -0.053241
  39 C :   -0.017309
  40 C :    0.077441
  41 C :    0.074386
  42 C :   -0.006578
  43 F :   -0.049881
  44 F :   -0.047199
  45 C :   -0.156468
  46 C :   -0.072903
  47 C :    0.000429
  48 C :   -0.199823
  49 S :    0.503623
  50 C :    0.070659
  51 C :   -0.129605
  52 C :    0.080731
  53 C :   -0.018469
  54 C :   -0.050156
  55 C :    0.092671
  56 O :   -0.167881
  57 C :   -0.147267
  58 C :   -0.014676
  59 C :   -0.015318
  60 N :   -0.054054
  61 N :   -0.052361
  62 C :   -0.017084
  63 C :    0.077770
  64 C :    0.074416
  65 C :   -0.007061
  66 F :   -0.050044
  67 F :   -0.046958
  68 O :   -0.104609
  69 O :   -0.106233
  70 C :    0.077822
  71 C :   -0.064506
  72 C :    0.079830
  73 C :   -0.078366
  74 O :   -0.110878
  75 O :   -0.102476
  76 C :    0.077407
  77 C :   -0.076314
  78 C :    0.077614
  79 C :   -0.062866
  80 H :    0.033996
  81 H :    0.033023
  82 H :    0.030822
  83 H :    0.024849
  84 H :    0.036637
  85 H :    0.030569
  86 H :    0.025544
  87 H :    0.032925
  88 H :    0.031545
  89 H :    0.044020
  90 H :    0.052992
  91 H :    0.054031
  92 H :    0.055164
  93 H :    0.032141
  94 H :    0.044261
  95 H :    0.052992
  96 H :    0.054161
  97 H :    0.054622
  98 H :    0.012113
  99 H :    0.013173
 100 H :    0.030895
 101 H :    0.031893
 102 H :    0.031711
 103 H :    0.015200
 104 H :    0.026968
 105 H :    0.034437
 106 H :    0.026466
 107 H :    0.026729
 108 H :    0.027067
 109 H :    0.012379
 110 H :    0.028406
 111 H :    0.032716
 112 H :    0.025879
 113 H :    0.008126
 114 H :    0.015455
 115 H :    0.030920
 116 H :    0.032279
 117 H :    0.032899

  Mayer bond orders larger than 0.100000
B(  0-C ,  1-C ) :   1.4903 B(  0-C ,  3-C ) :   0.1030 B(  0-C ,  4-S ) :   1.1095
B(  0-C , 45-C ) :   1.1754 B(  1-C ,  2-C ) :   1.2859 B(  1-C , 80-H ) :   0.9933
B(  2-C ,  3-C ) :   1.5176 B(  2-C ,  5-C ) :   0.9957 B(  3-C ,  4-S ) :   1.1436
B(  3-C ,  6-C ) :   1.0909 B(  5-C ,  7-C ) :   1.3988 B(  5-C , 11-C ) :   1.3140
B(  6-C , 12-S ) :   1.1439 B(  6-C , 13-C ) :   0.1032 B(  6-C , 15-C ) :   1.5181
B(  7-C ,  8-C ) :   1.3263 B(  7-C , 81-H ) :   1.0058 B(  8-C ,  9-C ) :   1.3287
B(  8-C , 68-O ) :   1.1230 B(  9-C , 10-C ) :   1.3195 B(  9-C , 82-H ) :   1.0095
B( 10-C , 11-C ) :   1.3311 B( 10-C , 69-O ) :   1.0876 B( 11-C , 83-H ) :   0.9947
B( 12-S , 13-C ) :   1.1105 B( 13-C , 14-C ) :   1.4882 B( 13-C , 22-C ) :   1.1759
B( 14-C , 15-C ) :   1.2946 B( 14-C , 84-H ) :   0.9958 B( 15-C , 16-C ) :   0.9919
B( 16-C , 17-C ) :   1.3624 B( 16-C , 21-C ) :   1.3543 B( 17-C , 18-C ) :   1.3772
B( 17-C , 85-H ) :   0.9917 B( 18-C , 19-C ) :   1.2761 B( 18-C , 75-O ) :   1.0917
B( 19-C , 20-C ) :   1.3062 B( 19-C , 86-H ) :   0.9977 B( 20-C , 21-C ) :   1.3784
B( 20-C , 74-O ) :   1.0818 B( 21-C , 87-H ) :   1.0083 B( 22-C , 23-C ) :   1.3992
B( 22-C , 26-S ) :   1.1563 B( 23-C , 24-C ) :   1.3703 B( 23-C , 88-H ) :   0.9928
B( 24-C , 25-C ) :   1.3526 B( 24-C , 89-H ) :   0.9995 B( 25-C , 26-S ) :   1.0799
B( 25-C , 27-C ) :   1.2941 B( 27-C , 28-C ) :   1.5198 B( 27-C , 90-H ) :   0.9372
B( 28-C , 29-C ) :   1.1008 B( 28-C , 32-C ) :   0.9843 B( 29-C , 30-C ) :   1.0132
B( 29-C , 34-C ) :   1.6378 B( 30-C , 31-C ) :   1.3472 B( 30-C , 39-C ) :   1.3357
B( 31-C , 32-C ) :   0.9693 B( 31-C , 42-C ) :   1.3425 B( 32-C , 33-O ) :   2.1315
B( 34-C , 35-C ) :   1.1306 B( 34-C , 36-C ) :   1.1338 B( 35-C , 38-N ) :   2.9735
B( 36-C , 37-N ) :   2.9546 B( 39-C , 40-C ) :   1.3490 B( 39-C , 91-H ) :   0.9880
B( 40-C , 41-C ) :   1.2948 B( 40-C , 44-F ) :   1.1149 B( 41-C , 42-C ) :   1.3285
B( 41-C , 43-F ) :   1.0994 B( 42-C , 92-H ) :   1.0154 B( 45-C , 46-C ) :   1.3970
B( 45-C , 49-S ) :   1.1557 B( 46-C , 47-C ) :   1.3692 B( 46-C , 93-H ) :   0.9949
B( 47-C , 48-C ) :   1.3522 B( 47-C , 94-H ) :   0.9999 B( 48-C , 49-S ) :   1.0794
B( 48-C , 50-C ) :   1.2939 B( 50-C , 51-C ) :   1.5185 B( 50-C , 95-H ) :   0.9387
B( 51-C , 52-C ) :   1.1017 B( 51-C , 55-C ) :   0.9840 B( 52-C , 53-C ) :   1.0170
B( 52-C , 57-C ) :   1.6377 B( 53-C , 54-C ) :   1.3438 B( 53-C , 62-C ) :   1.3341
B( 54-C , 55-C ) :   0.9693 B( 54-C , 65-C ) :   1.3454 B( 55-C , 56-O ) :   2.1298
B( 57-C , 58-C ) :   1.1281 B( 57-C , 59-C ) :   1.1337 B( 58-C , 61-N ) :   2.9736
B( 59-C , 60-N ) :   2.9543 B( 62-C , 63-C ) :   1.3495 B( 62-C , 96-H ) :   0.9891
B( 63-C , 64-C ) :   1.2934 B( 63-C , 67-F ) :   1.1149 B( 64-C , 65-C ) :   1.3284
B( 64-C , 66-F ) :   1.0995 B( 65-C , 97-H ) :   1.0156 B( 68-O , 70-C ) :   0.9268
B( 69-O , 72-C ) :   0.9380 B( 70-C , 71-C ) :   1.0913 B( 70-C , 98-H ) :   0.9475
B( 70-C , 99-H ) :   0.9524 B( 71-C ,100-H ) :   0.9719 B( 71-C ,101-H ) :   0.9657
B( 71-C ,102-H ) :   0.9712 B( 72-C , 73-C ) :   1.0982 B( 72-C ,103-H ) :   0.9507
B( 72-C ,104-H ) :   0.9606 B( 73-C ,105-H ) :   0.9630 B( 73-C ,106-H ) :   0.9640
B( 73-C ,107-H ) :   0.9616 B( 74-O , 78-C ) :   0.9253 B( 75-O , 76-C ) :   0.9302
B( 76-C , 77-C ) :   1.0914 B( 76-C ,108-H ) :   0.9608 B( 76-C ,109-H ) :   0.9539
B( 77-C ,110-H ) :   0.9660 B( 77-C ,111-H ) :   0.9635 B( 77-C ,112-H ) :   0.9626
B( 78-C , 79-C ) :   1.0931 B( 78-C ,113-H ) :   0.9471 B( 78-C ,114-H ) :   0.9542
B( 79-C ,115-H ) :   0.9721 B( 79-C ,116-H ) :   0.9654 B( 79-C ,117-H ) :   0.9705

-----------------------------------------------------------------------------
         ABSORPTION SPECTRUM VIA TRANSITION ELECTRIC DIPOLE MOMENTS
-----------------------------------------------------------------------------
State   Energy  Wavelength   fosc         T2         TX        TY        TZ
        (cm-1)    (nm)                  (au**2)     (au)      (au)      (au)
-----------------------------------------------------------------------------
   0   19265.0    519.1   3.196890016  54.63046  -3.16381  -6.63889   0.73889
   1   25559.9    391.2   0.254355530   3.27610   1.61455  -0.71528   0.39710
   2   29583.3    338.0   0.004842436   0.05389   0.08686  -0.02722  -0.21355
   3   30075.2    332.5   0.001488172   0.01629  -0.06836   0.10747   0.00811
   4   30878.7    323.8   0.055064633   0.58707  -0.17827  -0.73651  -0.11336
   5   32089.4    311.6   0.030512116   0.31303   0.32651  -0.44289   0.10133
   6   32845.0    304.5   0.238982394   2.39537  -0.45406  -1.43965  -0.34146
   7   33488.6    298.6   0.042439493   0.41720  -0.43148  -0.42354  -0.22724
   8   34804.8    287.3   0.012168437   0.11510  -0.24246  -0.21571   0.09891
   9   35643.9    280.6   0.030671315   0.28328  -0.40891   0.28384  -0.18845
  10   36454.1    274.3   0.060608303   0.54735   0.58992  -0.44591   0.02234
  11   36532.0    273.7   0.073034170   0.65816  -0.65128  -0.44924   0.17935
  12   36944.5    270.7   0.632040561   5.63211   2.02489  -0.89205   0.85801
  13   37422.2    267.2   0.053237278   0.46834   0.32070  -0.57828   0.17633
  14   38552.0    259.4   0.150146936   1.28217   0.95037  -0.54976   0.27700
  15   38705.7    258.4   0.053989784   0.45921  -0.34085  -0.58120   0.07243
  16   39291.0    254.5   0.047018691   0.39396   0.20272   0.04081  -0.59262
  17   39658.5    252.2   0.126545617   1.05048  -0.16551   1.00051   0.14852

Dispersion correction           -0.078367678
FINAL SINGLE POINT ENERGY     -5043.837593746952

DIPOLE MOMENT
-------------
                                X             Y             Z
Electronic contribution:     71.40419     -24.76182      27.88285
Nuclear contribution   :    -75.10472      25.84346     -29.66146
                        -----------------------------------------
Total Dipole Moment    :     -3.70053       1.08165      -1.77862
                        -----------------------------------------
Magnitude (a.u.)       :      4.24586
Magnitude (Debye)      :     10.79212

Rotational constants in cm-1:     0.001307     0.000238     0.000212
Rotational constants in MHz :    39.192715     7.139751     6.347917

                             ****ORCA TERMINATED NORMALLY****
TOTAL RUN TIME: 0 days 0 hours 12 minutes 27 seconds 444 msec
