                         Program Version 4.2.0 -  RELEASE  -
|  1> # ORCA input file
|  2> # SCF done       -227.011756777516          0.000301366512
|  3> ! wb97x-d3 def2-SVP def2/J RIJCOSX Grid4 TightSCF
|  4> %maxcore 5000
|  5> %tddft
|  6>     Mode sTDA
|  7>     Ethresh 5.0
|  8>     maxcore 5000
|  9> end
| 10>
| 11> %pal
| 12>   nprocs 6
| 13>   end
| 14> * xyz 0 1
| 15>    C        2.80984        -1.15210        -0.67835
| 16>    C        2.74129        -0.48168         0.56797
| 17>    C        1.71768         0.41445         0.86906
| 18>    C        0.75492         0.61111        -0.09201
| 19>    C        0.79353        -0.09921        -1.31799
| 20>    C        1.82802        -0.97972        -1.62574
| 21>    C        4.02274        -2.06421        -0.74174
| 22>    C        4.61520        -1.84977         0.62612
| 23>    C        3.85201        -0.93299         1.34054
| 24>    C        5.71818        -2.30552         1.33026
| 25>    C        5.76691        -1.79398         2.62142
| 26>    S        4.45519        -0.65877         2.91722
| 27>    C       -0.45841         1.51851        -0.02298
| 28>    C       -1.16961         1.13312        -1.29592
| 29>    C       -0.38891         0.24948        -2.03845
| 30>    C       -2.38068         1.42350        -1.89475
| 31>    C       -2.53706         0.77168        -3.11564
| 32>    S       -1.12148        -0.18529        -3.51912
| 33>    C       -1.27573         1.21846         1.21991
| 34>    C       -0.10967         2.99373        -0.14943
| 35>    C        3.53620        -3.48557        -0.97122
| 36>    C        5.05775        -1.64394        -1.77006
| 37>    C        3.32846        -3.94272        -2.26661
| 38>    C        2.84175        -5.21652        -2.48952
| 39>    C        2.54312        -6.06158        -1.42832
| 40>    C        2.74522        -5.59469        -0.13676
| 41>    C        3.22956        -4.32007         0.09453
| 42>    C        5.04279        -0.38629        -2.35467
| 43>    C        6.02861        -0.02124        -3.25430
| 44>    C        7.05401        -0.89548        -3.58619
| 45>    C        7.07275        -2.14806        -2.98485
| 46>    C        6.09077        -2.51818        -2.08716
| 47>    C       -1.18014         2.00284         2.36085
| 48>    C       -1.97091         1.73070         3.46269
| 49>    C       -2.86676         0.66975         3.45690
| 50>    C       -2.91797        -0.14262         2.33136
| 51>    C       -2.12473         0.11931         1.23157
| 52>    C       -1.12263         3.93841        -0.02469
| 53>    C       -0.85582         5.28289        -0.18949
| 54>    C        0.42721         5.72369        -0.49139
| 55>    C        1.43379         4.77749        -0.61768
| 56>    C        1.17111         3.42831        -0.45578
| 57>    C       -3.80136         0.43826         4.60688
| 58>    C        0.72173         7.18917        -0.62830
| 59>    C        8.14466        -0.48114        -4.53091
| 60>    C        2.06191        -7.46200        -1.67501
| 61>    C        9.30223         0.16060        -3.76310
| 62>    C        3.24914        -8.41887        -1.80206
| 63>    C       -5.12005         1.17635         4.36270
| 64>    C        1.03050         7.80261         0.73906
| 65>    C        6.75787        -2.07369         3.58619
| 66>    C        6.69060        -1.94603         4.94216
| 67>    C        7.93538        -1.83418         5.74228
| 68>    C        7.49246        -1.34455         7.06958
| 69>    C        6.08738        -1.29421         7.10729
| 70>    C        5.56658        -1.81291         5.84301
| 71>    C        8.26392        -0.96090         8.14880
| 72>    C        7.60640        -0.50620         9.28083
| 73>    C        6.21280        -0.44096         9.31944
| 74>    C        5.43599        -0.83742         8.24107
| 75>    O        9.06517        -2.05058         5.37189
| 76>    C        4.31946        -2.35151         5.66490
| 77>    C        3.96751        -3.12556         4.53932
| 78>    C        3.28898        -2.27980         6.62404
| 79>    N        2.41690        -2.23077         7.36812
| 80>    N        3.66597        -3.80703         3.66624
| 81>    F        5.60829         0.01818        10.42045
| 82>    F        8.31550        -0.12118        10.34854
| 83>    C       -4.91612         1.18550        -3.71474
| 84>    C       -5.82233         1.67192        -4.78250
| 85>    C       -6.96438         2.28884        -4.06287
| 86>    C       -6.81350         2.08644        -2.67927
| 87>    C       -5.61821         1.27616        -2.45442
| 88>    C       -8.04243         2.97716        -4.58287
| 89>    C       -8.97785         3.47829        -3.69097
| 90>    C       -8.82891         3.28756        -2.31653
| 91>    C       -7.75276         2.58690        -1.79269
| 92>    O       -5.64499         1.61904        -5.97673
| 93>    C       -5.37048         0.52111        -1.33671
| 94>    C       -4.41294        -0.51247        -1.31989
| 95>    C       -6.07263         0.63035        -0.12115
| 96>    N       -3.69454        -1.40701        -1.28779
| 97>    N       -6.57645         0.71092         0.90726
| 98>    F      -10.03657         4.15424        -4.15245
| 99>    F       -9.74300         3.79260        -1.48093
|100>    C       -3.62691         0.83569        -4.00694
|101>    H        1.68335         0.92409         1.81990
|102>    H        1.84447        -1.50722        -2.56661
|103>    H        6.43969        -3.01373         0.96590
|104>    H       -3.11765         2.09808        -1.49807
|105>    H        3.56127        -3.30379        -3.10674
|106>    H        2.68874        -5.55778        -3.50355
|107>    H        2.51707        -6.23201         0.70492
|108>    H        3.36772        -3.98511         1.11153
|109>    H        4.25621         0.31374        -2.11275
|110>    H        5.99715         0.95974        -3.70678
|111>    H        7.86451        -2.84289        -3.22571
|112>    H        6.11469        -3.50002        -1.63717
|113>    H       -0.49807         2.84079         2.38537
|114>    H       -1.89488         2.35964         4.33829
|115>    H       -3.59033        -0.98776         2.31032
|116>    H       -2.17574        -0.53219         0.37186
|117>    H       -2.12486         3.61645         0.21803
|118>    H       -1.65582         6.00201        -0.08645
|119>    H        2.43931         5.09676        -0.85211
|120>    H        1.97395         2.71477        -0.56864
|121>    H       -4.00114        -0.62958         4.71212
|122>    H       -3.35030         0.79679         5.53428
|123>    H        1.57777         7.33471        -1.28997
|124>    H       -0.13897         7.69981        -1.06495
|125>    H        8.51394        -1.35285        -5.07470
|126>    H        7.75390         0.23466        -5.25679
|127>    H        1.42617        -7.78536        -0.84873
|128>    H        1.47295        -7.49520        -2.59382
|129>    H        9.71554        -0.54259        -3.04354
|130>    H       10.09173         0.46150        -4.44756
|131>    H        8.95708         1.03920        -3.22257
|132>    H        3.84098        -8.40949        -0.88951
|133>    H        2.90268        -9.43397        -1.98112
|134>    H        3.88999        -8.11958        -2.62866
|135>    H       -5.58001         0.83743         3.43715
|136>    H       -5.81214         0.99751         5.18189
|137>    H       -4.94423         2.24726         4.28448
|138>    H        1.89498         7.31612         1.18536
|139>    H        1.24185         8.86458         0.64011
|140>    H        0.18358         7.67789         1.41000
|141>    H        7.72756        -2.36739         3.19498
|142>    H        9.34064        -1.01134         8.11881
|143>    H        4.36266        -0.76843         8.31295
|144>    H       -8.16042         3.12149        -5.64492
|145>    H       -7.67594         2.46153        -0.72454
|146>    H       -3.41674         0.65447        -5.05576
|147> *
|148>
|149>                          ****END OF INPUT****

CARTESIAN COORDINATES (ANGSTROEM)
---------------------------------
  C      2.809840   -1.152100   -0.678350
  C      2.741290   -0.481680    0.567970
  C      1.717680    0.414450    0.869060
  C      0.754920    0.611110   -0.092010
  C      0.793530   -0.099210   -1.317990
  C      1.828020   -0.979720   -1.625740
  C      4.022740   -2.064210   -0.741740
  C      4.615200   -1.849770    0.626120
  C      3.852010   -0.932990    1.340540
  C      5.718180   -2.305520    1.330260
  C      5.766910   -1.793980    2.621420
  S      4.455190   -0.658770    2.917220
  C     -0.458410    1.518510   -0.022980
  C     -1.169610    1.133120   -1.295920
  C     -0.388910    0.249480   -2.038450
  C     -2.380680    1.423500   -1.894750
  C     -2.537060    0.771680   -3.115640
  S     -1.121480   -0.185290   -3.519120
  C     -1.275730    1.218460    1.219910
  C     -0.109670    2.993730   -0.149430
  C      3.536200   -3.485570   -0.971220
  C      5.057750   -1.643940   -1.770060
  C      3.328460   -3.942720   -2.266610
  C      2.841750   -5.216520   -2.489520
  C      2.543120   -6.061580   -1.428320
  C      2.745220   -5.594690   -0.136760
  C      3.229560   -4.320070    0.094530
  C      5.042790   -0.386290   -2.354670
  C      6.028610   -0.021240   -3.254300
  C      7.054010   -0.895480   -3.586190
  C      7.072750   -2.148060   -2.984850
  C      6.090770   -2.518180   -2.087160
  C     -1.180140    2.002840    2.360850
  C     -1.970910    1.730700    3.462690
  C     -2.866760    0.669750    3.456900
  C     -2.917970   -0.142620    2.331360
  C     -2.124730    0.119310    1.231570
  C     -1.122630    3.938410   -0.024690
  C     -0.855820    5.282890   -0.189490
  C      0.427210    5.723690   -0.491390
  C      1.433790    4.777490   -0.617680
  C      1.171110    3.428310   -0.455780
  C     -3.801360    0.438260    4.606880
  C      0.721730    7.189170   -0.628300
  C      8.144660   -0.481140   -4.530910
  C      2.061910   -7.462000   -1.675010
  C      9.302230    0.160600   -3.763100
  C      3.249140   -8.418870   -1.802060
  C     -5.120050    1.176350    4.362700
  C      1.030500    7.802610    0.739060
  C      6.757870   -2.073690    3.586190
  C      6.690600   -1.946030    4.942160
  C      7.935380   -1.834180    5.742280
  C      7.492460   -1.344550    7.069580
  C      6.087380   -1.294210    7.107290
  C      5.566580   -1.812910    5.843010
  C      8.263920   -0.960900    8.148800
  C      7.606400   -0.506200    9.280830
  C      6.212800   -0.440960    9.319440
  C      5.435990   -0.837420    8.241070
  O      9.065170   -2.050580    5.371890
  C      4.319460   -2.351510    5.664900
  C      3.967510   -3.125560    4.539320
  C      3.288980   -2.279800    6.624040
  N      2.416900   -2.230770    7.368120
  N      3.665970   -3.807030    3.666240
  F      5.608290    0.018180   10.420450
  F      8.315500   -0.121180   10.348540
  C     -4.916120    1.185500   -3.714740
  C     -5.822330    1.671920   -4.782500
  C     -6.964380    2.288840   -4.062870
  C     -6.813500    2.086440   -2.679270
  C     -5.618210    1.276160   -2.454420
  C     -8.042430    2.977160   -4.582870
  C     -8.977850    3.478290   -3.690970
  C     -8.828910    3.287560   -2.316530
  C     -7.752760    2.586900   -1.792690
  O     -5.644990    1.619040   -5.976730
  C     -5.370480    0.521110   -1.336710
  C     -4.412940   -0.512470   -1.319890
  C     -6.072630    0.630350   -0.121150
  N     -3.694540   -1.407010   -1.287790
  N     -6.576450    0.710920    0.907260
  F    -10.036570    4.154240   -4.152450
  F     -9.743000    3.792600   -1.480930
  C     -3.626910    0.835690   -4.006940
  H      1.683350    0.924090    1.819900
  H      1.844470   -1.507220   -2.566610
  H      6.439690   -3.013730    0.965900
  H     -3.117650    2.098080   -1.498070
  H      3.561270   -3.303790   -3.106740
  H      2.688740   -5.557780   -3.503550
  H      2.517070   -6.232010    0.704920
  H      3.367720   -3.985110    1.111530
  H      4.256210    0.313740   -2.112750
  H      5.997150    0.959740   -3.706780
  H      7.864510   -2.842890   -3.225710
  H      6.114690   -3.500020   -1.637170
  H     -0.498070    2.840790    2.385370
  H     -1.894880    2.359640    4.338290
  H     -3.590330   -0.987760    2.310320
  H     -2.175740   -0.532190    0.371860
  H     -2.124860    3.616450    0.218030
  H     -1.655820    6.002010   -0.086450
  H      2.439310    5.096760   -0.852110
  H      1.973950    2.714770   -0.568640
  H     -4.001140   -0.629580    4.712120
  H     -3.350300    0.796790    5.534280
  H      1.577770    7.334710   -1.289970
  H     -0.138970    7.699810   -1.064950
  H      8.513940   -1.352850   -5.074700
  H      7.753900    0.234660   -5.256790
  H      1.426170   -7.785360   -0.848730
  H      1.472950   -7.495200   -2.593820
  H      9.715540   -0.542590   -3.043540
  H     10.091730    0.461500   -4.447560
  H      8.957080    1.039200   -3.222570
  H      3.840980   -8.409490   -0.889510
  H      2.902680   -9.433970   -1.981120
  H      3.889990   -8.119580   -2.628660
  H     -5.580010    0.837430    3.437150
  H     -5.812140    0.997510    5.181890
  H     -4.944230    2.247260    4.284480
  H      1.894980    7.316120    1.185360
  H      1.241850    8.864580    0.640110
  H      0.183580    7.677890    1.410000
  H      7.727560   -2.367390    3.194980
  H      9.340640   -1.011340    8.118810
  H      4.362660   -0.768430    8.312950
  H     -8.160420    3.121490   -5.644920
  H     -7.675940    2.461530   -0.724540
  H     -3.416740    0.654470   -5.055760

 Total Charge           Charge          ....    0
 Multiplicity           Mult            ....    1
 Number of Electrons    NEL             ....  602
 Basis Dimension        Dim             .... 1442

ORBITAL ENERGIES
----------------

  NO   OCC          E(Eh)            E(eV)
   0   2.0000     -89.000342     -2421.8224
   1   2.0000     -88.999232     -2421.7922
   2   2.0000     -24.834776      -675.7886
   3   2.0000     -24.834653      -675.7853
   4   2.0000     -24.833906      -675.7649
   5   2.0000     -24.833434      -675.7521
   6   2.0000     -19.254981      -523.9547
   7   2.0000     -19.254809      -523.9500
   8   2.0000     -14.455445      -393.3526
   9   2.0000     -14.452744      -393.2791
  10   2.0000     -14.452005      -393.2591
  11   2.0000     -14.451929      -393.2570
  12   2.0000     -10.421757      -283.5904
  13   2.0000     -10.420867      -283.5662
  14   2.0000     -10.420694      -283.5615
  15   2.0000     -10.419843      -283.5383
  16   2.0000     -10.405634      -283.1517
  17   2.0000     -10.405559      -283.1497
  18   2.0000     -10.383699      -282.5548
  19   2.0000     -10.383244      -282.5424
  20   2.0000     -10.380759      -282.4748
  21   2.0000     -10.379683      -282.4455
  22   2.0000     -10.361510      -281.9510
  23   2.0000     -10.360223      -281.9160
  24   2.0000     -10.356283      -281.8088
  25   2.0000     -10.353590      -281.7355
  26   2.0000     -10.353506      -281.7332
  27   2.0000     -10.352910      -281.7170
  28   2.0000     -10.352733      -281.7122
  29   2.0000     -10.352542      -281.7070
  30   2.0000     -10.352443      -281.7043
  31   2.0000     -10.352394      -281.7030
  32   2.0000     -10.350109      -281.6408
  33   2.0000     -10.349910      -281.6354
  34   2.0000     -10.344905      -281.4992
  35   2.0000     -10.344122      -281.4779
  36   2.0000     -10.343576      -281.4630
  37   2.0000     -10.343325      -281.4562
  38   2.0000     -10.338684      -281.3299
  39   2.0000     -10.337893      -281.3084
  40   2.0000     -10.337241      -281.2906
  41   2.0000     -10.337083      -281.2863
  42   2.0000     -10.333173      -281.1799
  43   2.0000     -10.332112      -281.1511
  44   2.0000     -10.331891      -281.1450
  45   2.0000     -10.331713      -281.1402
  46   2.0000     -10.330787      -281.1150
  47   2.0000     -10.330529      -281.1080
  48   2.0000     -10.325159      -280.9618
  49   2.0000     -10.324555      -280.9454
  50   2.0000     -10.321585      -280.8646
  51   2.0000     -10.320692      -280.8403
  52   2.0000     -10.320337      -280.8306
  53   2.0000     -10.320221      -280.8275
  54   2.0000     -10.313319      -280.6397
  55   2.0000     -10.312524      -280.6180
  56   2.0000     -10.304991      -280.4131
  57   2.0000     -10.303822      -280.3812
  58   2.0000     -10.303576      -280.3746
  59   2.0000     -10.303160      -280.3632
  60   2.0000     -10.300862      -280.3007
  61   2.0000     -10.299981      -280.2767
  62   2.0000     -10.299901      -280.2746
  63   2.0000     -10.299799      -280.2718
  64   2.0000     -10.298712      -280.2422
  65   2.0000     -10.298338      -280.2320
  66   2.0000     -10.297915      -280.2205
  67   2.0000     -10.297682      -280.2142
  68   2.0000     -10.297636      -280.2129
  69   2.0000     -10.297488      -280.2089
  70   2.0000     -10.295111      -280.1442
  71   2.0000     -10.293207      -280.0924
  72   2.0000     -10.292518      -280.0736
  73   2.0000     -10.291856      -280.0556
  74   2.0000     -10.290523      -280.0194
  75   2.0000     -10.289565      -279.9933
  76   2.0000     -10.287821      -279.9458
  77   2.0000     -10.287680      -279.9420
  78   2.0000     -10.287413      -279.9347
  79   2.0000     -10.287270      -279.9309
  80   2.0000     -10.286879      -279.9202
  81   2.0000     -10.286727      -279.9161
  82   2.0000     -10.285334      -279.8782
  83   2.0000     -10.282934      -279.8129
  84   2.0000     -10.280787      -279.7544
  85   2.0000     -10.269092      -279.4362
  86   2.0000      -8.113777      -220.7871
  87   2.0000      -8.112225      -220.7449
  88   2.0000      -6.073153      -165.2589
  89   2.0000      -6.071754      -165.2208
  90   2.0000      -6.069131      -165.1495
  91   2.0000      -6.067666      -165.1096
  92   2.0000      -6.066253      -165.0711
  93   2.0000      -6.064525      -165.0241
  94   2.0000      -1.365291       -37.1514
  95   2.0000      -1.364276       -37.1238
  96   2.0000      -1.350202       -36.7409
  97   2.0000      -1.349212       -36.7139
  98   2.0000      -1.173316       -31.9275
  99   2.0000      -1.173144       -31.9229
 100   2.0000      -1.065073       -28.9821
 101   2.0000      -1.063737       -28.9457
 102   2.0000      -1.059633       -28.8341
 103   2.0000      -1.052638       -28.6437
 104   2.0000      -1.043319       -28.3902
 105   2.0000      -1.042053       -28.3557
 106   2.0000      -1.034626       -28.1536
 107   2.0000      -1.033244       -28.1160
 108   2.0000      -1.015287       -27.6274
 109   2.0000      -1.007118       -27.4051
 110   2.0000      -0.997074       -27.1318
 111   2.0000      -0.996380       -27.1129
 112   2.0000      -0.992409       -27.0048
 113   2.0000      -0.982020       -26.7221
 114   2.0000      -0.979928       -26.6652
 115   2.0000      -0.971181       -26.4272
 116   2.0000      -0.947825       -25.7916
 117   2.0000      -0.945238       -25.7212
 118   2.0000      -0.942490       -25.6465
 119   2.0000      -0.935829       -25.4652
 120   2.0000      -0.929752       -25.2998
 121   2.0000      -0.915405       -24.9094
 122   2.0000      -0.914526       -24.8855
 123   2.0000      -0.913271       -24.8514
 124   2.0000      -0.907299       -24.6889
 125   2.0000      -0.906474       -24.6664
 126   2.0000      -0.897952       -24.4345
 127   2.0000      -0.894685       -24.3456
 128   2.0000      -0.883720       -24.0472
 129   2.0000      -0.879040       -23.9199
 130   2.0000      -0.868543       -23.6342
 131   2.0000      -0.867975       -23.6188
 132   2.0000      -0.864417       -23.5220
 133   2.0000      -0.858932       -23.3727
 134   2.0000      -0.856795       -23.3146
 135   2.0000      -0.854232       -23.2448
 136   2.0000      -0.852216       -23.1900
 137   2.0000      -0.837601       -22.7923
 138   2.0000      -0.836215       -22.7546
 139   2.0000      -0.833534       -22.6816
 140   2.0000      -0.814149       -22.1541
 141   2.0000      -0.812113       -22.0987
 142   2.0000      -0.804057       -21.8795
 143   2.0000      -0.801532       -21.8108
 144   2.0000      -0.788842       -21.4655
 145   2.0000      -0.780146       -21.2288
 146   2.0000      -0.763947       -20.7881
 147   2.0000      -0.755342       -20.5539
 148   2.0000      -0.749448       -20.3935
 149   2.0000      -0.745274       -20.2799
 150   2.0000      -0.743624       -20.2350
 151   2.0000      -0.741327       -20.1725
 152   2.0000      -0.732217       -19.9246
 153   2.0000      -0.729897       -19.8615
 154   2.0000      -0.727732       -19.8026
 155   2.0000      -0.725273       -19.7357
 156   2.0000      -0.722300       -19.6548
 157   2.0000      -0.721942       -19.6450
 158   2.0000      -0.719197       -19.5703
 159   2.0000      -0.716186       -19.4884
 160   2.0000      -0.708230       -19.2719
 161   2.0000      -0.705753       -19.2045
 162   2.0000      -0.694104       -18.8875
 163   2.0000      -0.689524       -18.7629
 164   2.0000      -0.688905       -18.7461
 165   2.0000      -0.684381       -18.6230
 166   2.0000      -0.681146       -18.5349
 167   2.0000      -0.680330       -18.5127
 168   2.0000      -0.679044       -18.4777
 169   2.0000      -0.677558       -18.4373
 170   2.0000      -0.675536       -18.3823
 171   2.0000      -0.673512       -18.3272
 172   2.0000      -0.665598       -18.1118
 173   2.0000      -0.650949       -17.7132
 174   2.0000      -0.647069       -17.6076
 175   2.0000      -0.641896       -17.4669
 176   2.0000      -0.640363       -17.4252
 177   2.0000      -0.637205       -17.3392
 178   2.0000      -0.631501       -17.1840
 179   2.0000      -0.628682       -17.1073
 180   2.0000      -0.627356       -17.0712
 181   2.0000      -0.625423       -17.0186
 182   2.0000      -0.624428       -16.9916
 183   2.0000      -0.621696       -16.9172
 184   2.0000      -0.619822       -16.8662
 185   2.0000      -0.607639       -16.5347
 186   2.0000      -0.597783       -16.2665
 187   2.0000      -0.595111       -16.1938
 188   2.0000      -0.588273       -16.0077
 189   2.0000      -0.587216       -15.9790
 190   2.0000      -0.586616       -15.9626
 191   2.0000      -0.586122       -15.9492
 192   2.0000      -0.584573       -15.9070
 193   2.0000      -0.584020       -15.8920
 194   2.0000      -0.583527       -15.8786
 195   2.0000      -0.582491       -15.8504
 196   2.0000      -0.578374       -15.7384
 197   2.0000      -0.576741       -15.6939
 198   2.0000      -0.573166       -15.5966
 199   2.0000      -0.572160       -15.5693
 200   2.0000      -0.566779       -15.4228
 201   2.0000      -0.566172       -15.4063
 202   2.0000      -0.563346       -15.3294
 203   2.0000      -0.562679       -15.3113
 204   2.0000      -0.562294       -15.3008
 205   2.0000      -0.559643       -15.2287
 206   2.0000      -0.557126       -15.1602
 207   2.0000      -0.553720       -15.0675
 208   2.0000      -0.552234       -15.0270
 209   2.0000      -0.550687       -14.9850
 210   2.0000      -0.545653       -14.8480
 211   2.0000      -0.544362       -14.8129
 212   2.0000      -0.542027       -14.7493
 213   2.0000      -0.538012       -14.6401
 214   2.0000      -0.537181       -14.6174
 215   2.0000      -0.536099       -14.5880
 216   2.0000      -0.535126       -14.5615
 217   2.0000      -0.532321       -14.4852
 218   2.0000      -0.530624       -14.4390
 219   2.0000      -0.529861       -14.4183
 220   2.0000      -0.528690       -14.3864
 221   2.0000      -0.528626       -14.3846
 222   2.0000      -0.527550       -14.3554
 223   2.0000      -0.526957       -14.3392
 224   2.0000      -0.523997       -14.2587
 225   2.0000      -0.523226       -14.2377
 226   2.0000      -0.523132       -14.2351
 227   2.0000      -0.520936       -14.1754
 228   2.0000      -0.517719       -14.0878
 229   2.0000      -0.516139       -14.0448
 230   2.0000      -0.514479       -13.9997
 231   2.0000      -0.513548       -13.9744
 232   2.0000      -0.510757       -13.8984
 233   2.0000      -0.505039       -13.7428
 234   2.0000      -0.501849       -13.6560
 235   2.0000      -0.497008       -13.5243
 236   2.0000      -0.495053       -13.4711
 237   2.0000      -0.494728       -13.4622
 238   2.0000      -0.493782       -13.4365
 239   2.0000      -0.492295       -13.3960
 240   2.0000      -0.491075       -13.3628
 241   2.0000      -0.490217       -13.3395
 242   2.0000      -0.489241       -13.3129
 243   2.0000      -0.487695       -13.2709
 244   2.0000      -0.486368       -13.2348
 245   2.0000      -0.486244       -13.2314
 246   2.0000      -0.482668       -13.1341
 247   2.0000      -0.481584       -13.1046
 248   2.0000      -0.480440       -13.0734
 249   2.0000      -0.477764       -13.0006
 250   2.0000      -0.473610       -12.8876
 251   2.0000      -0.469654       -12.7799
 252   2.0000      -0.468542       -12.7497
 253   2.0000      -0.466993       -12.7075
 254   2.0000      -0.465404       -12.6643
 255   2.0000      -0.464200       -12.6315
 256   2.0000      -0.463087       -12.6012
 257   2.0000      -0.462407       -12.5827
 258   2.0000      -0.459485       -12.5032
 259   2.0000      -0.457514       -12.4496
 260   2.0000      -0.457251       -12.4424
 261   2.0000      -0.456214       -12.4142
 262   2.0000      -0.452371       -12.3096
 263   2.0000      -0.450662       -12.2631
 264   2.0000      -0.448593       -12.2068
 265   2.0000      -0.447376       -12.1737
 266   2.0000      -0.446091       -12.1387
 267   2.0000      -0.445416       -12.1204
 268   2.0000      -0.442912       -12.0523
 269   2.0000      -0.441922       -12.0253
 270   2.0000      -0.437797       -11.9131
 271   2.0000      -0.435475       -11.8499
 272   2.0000      -0.433633       -11.7997
 273   2.0000      -0.432471       -11.7681
 274   2.0000      -0.431238       -11.7346
 275   2.0000      -0.425912       -11.5896
 276   2.0000      -0.423949       -11.5362
 277   2.0000      -0.422751       -11.5036
 278   2.0000      -0.419777       -11.4227
 279   2.0000      -0.418043       -11.3755
 280   2.0000      -0.402085       -10.9413
 281   2.0000      -0.385727       -10.4962
 282   2.0000      -0.383566       -10.4374
 283   2.0000      -0.378990       -10.3128
 284   2.0000      -0.374571       -10.1926
 285   2.0000      -0.373314       -10.1584
 286   2.0000      -0.369347       -10.0505
 287   2.0000      -0.368293       -10.0218
 288   2.0000      -0.360333        -9.8052
 289   2.0000      -0.354351        -9.6424
 290   2.0000      -0.353716        -9.6251
 291   2.0000      -0.348520        -9.4837
 292   2.0000      -0.345302        -9.3961
 293   2.0000      -0.342832        -9.3289
 294   2.0000      -0.341351        -9.2886
 295   2.0000      -0.334804        -9.1105
 296   2.0000      -0.331591        -9.0230
 297   2.0000      -0.322954        -8.7880
 298   2.0000      -0.318983        -8.6800
 299   2.0000      -0.316815        -8.6210
 300   2.0000      -0.279754        -7.6125
 301   0.0000      -0.079600        -2.1660
 302   0.0000      -0.065208        -1.7744
 303   0.0000      -0.040802        -1.1103
 304   0.0000      -0.034722        -0.9448
 305   0.0000      -0.000945        -0.0257

MULLIKEN ATOMIC CHARGES
-----------------------
   0 C :    0.012683
   1 C :    0.025364
   2 C :   -0.051493
   3 C :   -0.004690
   4 C :    0.026510
   5 C :   -0.055774
   6 C :   -0.001035
   7 C :    0.033723
   8 C :   -0.030163
   9 C :    0.032923
  10 C :   -0.146258
  11 S :    0.174622
  12 C :    0.014073
  13 C :    0.004250
  14 C :   -0.018777
  15 C :    0.029352
  16 C :   -0.175216
  17 S :    0.198545
  18 C :    0.035826
  19 C :    0.033104
  20 C :    0.029718
  21 C :    0.030366
  22 C :   -0.030765
  23 C :   -0.024743
  24 C :   -0.059356
  25 C :   -0.012852
  26 C :   -0.020337
  27 C :   -0.016687
  28 C :   -0.015222
  29 C :   -0.059952
  30 C :   -0.023414
  31 C :   -0.031791
  32 C :   -0.039762
  33 C :   -0.024101
  34 C :   -0.056937
  35 C :   -0.013341
  36 C :   -0.036586
  37 C :   -0.036456
  38 C :   -0.021891
  39 C :   -0.060935
  40 C :   -0.015268
  41 C :   -0.010871
  42 C :    0.018589
  43 C :    0.013101
  44 C :    0.014943
  45 C :    0.015313
  46 C :   -0.022049
  47 C :   -0.022131
  48 C :   -0.027578
  49 C :   -0.024448
  50 C :    0.071981
  51 C :   -0.176659
  52 C :    0.200815
  53 C :   -0.039092
  54 C :    0.009302
  55 C :    0.226281
  56 C :   -0.095882
  57 C :    0.242425
  58 C :    0.246138
  59 C :   -0.090141
  60 O :   -0.165792
  61 C :   -0.348554
  62 C :   -0.130893
  63 C :   -0.117606
  64 N :    0.114017
  65 N :    0.138209
  66 F :   -0.180270
  67 F :   -0.183390
  68 C :   -0.181926
  69 C :    0.202376
  70 C :   -0.041088
  71 C :    0.007982
  72 C :    0.233105
  73 C :   -0.095046
  74 C :    0.243496
  75 C :    0.244657
  76 C :   -0.092057
  77 O :   -0.164964
  78 C :   -0.380400
  79 C :   -0.114353
  80 C :   -0.105213
  81 N :    0.123147
  82 N :    0.116528
  83 F :   -0.183779
  84 F :   -0.179871
  85 C :    0.116499
  86 H :   -0.005807
  87 H :   -0.009820
  88 H :    0.018035
  89 H :    0.022435
  90 H :    0.012460
  91 H :   -0.006573
  92 H :    0.001519
  93 H :    0.005989
  94 H :    0.008409
  95 H :   -0.006147
  96 H :   -0.002691
  97 H :    0.013038
  98 H :    0.012220
  99 H :   -0.005268
 100 H :    0.003517
 101 H :    0.013476
 102 H :    0.011049
 103 H :   -0.002227
 104 H :   -0.006432
 105 H :    0.009452
 106 H :    0.030488
 107 H :    0.023024
 108 H :    0.028301
 109 H :    0.029176
 110 H :    0.027399
 111 H :    0.028570
 112 H :    0.030549
 113 H :    0.027635
 114 H :    0.028338
 115 H :    0.037557
 116 H :    0.027875
 117 H :    0.028356
 118 H :    0.036178
 119 H :    0.024894
 120 H :    0.037820
 121 H :    0.033614
 122 H :    0.020261
 123 H :    0.027940
 124 H :    0.039059
 125 H :    0.029290
 126 H :    0.056098
 127 H :    0.045477
 128 H :    0.049553
 129 H :    0.045399
 130 H :    0.047104
 131 H :    0.051306
Sum of atomic charges:   -0.0000000

LOEWDIN ATOMIC CHARGES
----------------------
   0 C :    0.019050
   1 C :   -0.030713
   2 C :   -0.007046
   3 C :    0.016598
   4 C :   -0.029681
   5 C :   -0.006158
   6 C :   -0.020729
   7 C :   -0.034797
   8 C :   -0.145528
   9 C :    0.007766
  10 C :   -0.187425
  11 S :    0.464353
  12 C :   -0.020126
  13 C :   -0.029133
  14 C :   -0.148939
  15 C :   -0.003630
  16 C :   -0.190279
  17 S :    0.468327
  18 C :   -0.028479
  19 C :   -0.013632
  20 C :   -0.022414
  21 C :   -0.016175
  22 C :   -0.028141
  23 C :   -0.029345
  24 C :   -0.022253
  25 C :   -0.020820
  26 C :   -0.017635
  27 C :   -0.026028
  28 C :   -0.026901
  29 C :   -0.023303
  30 C :   -0.026085
  31 C :   -0.021333
  32 C :   -0.029631
  33 C :   -0.030152
  34 C :   -0.017115
  35 C :   -0.020715
  36 C :   -0.020562
  37 C :   -0.019678
  38 C :   -0.025973
  39 C :   -0.022817
  40 C :   -0.027403
  41 C :   -0.026671
  42 C :   -0.032581
  43 C :   -0.032944
  44 C :   -0.032842
  45 C :   -0.032449
  46 C :   -0.052420
  47 C :   -0.053051
  48 C :   -0.054044
  49 C :   -0.052855
  50 C :    0.064943
  51 C :   -0.118251
  52 C :    0.092085
  53 C :   -0.052451
  54 C :   -0.016384
  55 C :    0.065043
  56 C :   -0.005711
  57 C :    0.073611
  58 C :    0.078936
  59 C :   -0.020645
  60 O :   -0.143845
  61 C :   -0.146215
  62 C :   -0.017065
  63 C :   -0.016213
  64 N :   -0.048941
  65 N :   -0.047934
  66 F :   -0.046909
  67 F :   -0.049424
  68 C :   -0.115220
  69 C :    0.091334
  70 C :   -0.051492
  71 C :   -0.017851
  72 C :    0.070550
  73 C :   -0.005483
  74 C :    0.073960
  75 C :    0.078136
  76 C :   -0.021952
  77 O :   -0.143745
  78 C :   -0.147108
  79 C :   -0.003105
  80 C :   -0.011667
  81 N :   -0.046398
  82 N :   -0.051109
  83 F :   -0.049261
  84 F :   -0.047065
  85 C :    0.065799
  86 H :    0.036603
  87 H :    0.035215
  88 H :    0.041573
  89 H :    0.036792
  90 H :    0.028436
  91 H :    0.026700
  92 H :    0.031068
  93 H :    0.029774
  94 H :    0.029371
  95 H :    0.027406
  96 H :    0.028267
  97 H :    0.030609
  98 H :    0.029588
  99 H :    0.027247
 100 H :    0.031164
 101 H :    0.028963
 102 H :    0.028982
 103 H :    0.028269
 104 H :    0.027338
 105 H :    0.029632
 106 H :    0.030022
 107 H :    0.026522
 108 H :    0.028695
 109 H :    0.029242
 110 H :    0.028755
 111 H :    0.028808
 112 H :    0.029921
 113 H :    0.028421
 114 H :    0.025153
 115 H :    0.025481
 116 H :    0.025146
 117 H :    0.025367
 118 H :    0.024800
 119 H :    0.023741
 120 H :    0.026564
 121 H :    0.024088
 122 H :    0.022328
 123 H :    0.025221
 124 H :    0.025815
 125 H :    0.025129
 126 H :    0.056575
 127 H :    0.056527
 128 H :    0.054449
 129 H :    0.056607
 130 H :    0.053907
 131 H :    0.051302

  Mayer bond orders larger than 0.100000
B(  0-C ,  1-C ) :   1.3606 B(  0-C ,  5-C ) :   1.4388 B(  0-C ,  6-C ) :   0.9318
B(  1-C ,  2-C ) :   1.3120 B(  1-C ,  8-C ) :   1.0869 B(  2-C ,  3-C ) :   1.4402
B(  2-C , 86-H ) :   1.0037 B(  3-C ,  4-C ) :   1.3607 B(  3-C , 12-C ) :   0.9332
B(  4-C ,  5-C ) :   1.3187 B(  4-C , 14-C ) :   1.0781 B(  5-C , 87-H ) :   0.9983
B(  6-C ,  7-C ) :   0.9457 B(  6-C , 20-C ) :   0.9364 B(  6-C , 21-C ) :   0.9347
B(  7-C ,  8-C ) :   1.4963 B(  7-C ,  9-C ) :   1.3451 B(  8-C , 11-S ) :   1.1292
B(  9-C , 10-C ) :   1.3944 B(  9-C , 88-H ) :   1.0071 B( 10-C , 11-S ) :   1.0955
B( 10-C , 50-C ) :   1.1628 B( 12-C , 13-C ) :   0.9486 B( 12-C , 18-C ) :   0.9377
B( 12-C , 19-C ) :   0.9254 B( 13-C , 14-C ) :   1.4847 B( 13-C , 15-C ) :   1.4009
B( 14-C , 17-S ) :   1.1446 B( 15-C , 16-C ) :   1.3897 B( 15-C , 89-H ) :   0.9939
B( 16-C , 17-S ) :   1.0994 B( 16-C , 85-C ) :   1.1613 B( 18-C , 32-C ) :   1.4061
B( 18-C , 36-C ) :   1.3939 B( 19-C , 37-C ) :   1.3791 B( 19-C , 41-C ) :   1.4425
B( 20-C , 22-C ) :   1.3933 B( 20-C , 26-C ) :   1.4110 B( 21-C , 27-C ) :   1.4321
B( 21-C , 31-C ) :   1.3885 B( 22-C , 23-C ) :   1.3963 B( 22-C , 90-H ) :   0.9888
B( 23-C , 24-C ) :   1.3862 B( 23-C , 91-H ) :   0.9946 B( 24-C , 25-C ) :   1.3880
B( 24-C , 45-C ) :   1.0237 B( 25-C , 26-C ) :   1.3907 B( 25-C , 92-H ) :   0.9964
B( 26-C , 93-H ) :   0.9836 B( 27-C , 28-C ) :   1.3741 B( 27-C , 94-H ) :   0.9832
B( 28-C , 29-C ) :   1.4020 B( 28-C , 95-H ) :   0.9919 B( 29-C , 30-C ) :   1.3827
B( 29-C , 44-C ) :   1.0222 B( 30-C , 31-C ) :   1.4021 B( 30-C , 96-H ) :   0.9949
B( 31-C , 97-H ) :   0.9951 B( 32-C , 33-C ) :   1.3807 B( 32-C , 98-H ) :   0.9904
B( 33-C , 34-C ) :   1.3986 B( 33-C , 99-H ) :   0.9938 B( 34-C , 35-C ) :   1.3801
B( 34-C , 42-C ) :   1.0264 B( 35-C , 36-C ) :   1.3996 B( 35-C ,100-H ) :   0.9950
B( 36-C ,101-H ) :   0.9851 B( 37-C , 38-C ) :   1.4108 B( 37-C ,102-H ) :   0.9954
B( 38-C , 39-C ) :   1.3760 B( 38-C ,103-H ) :   0.9955 B( 39-C , 40-C ) :   1.4084
B( 39-C , 43-C ) :   1.0240 B( 40-C , 41-C ) :   1.3667 B( 40-C ,104-H ) :   0.9916
B( 41-C ,105-H ) :   0.9819 B( 42-C , 48-C ) :   1.0819 B( 42-C ,106-H ) :   0.9440
B( 42-C ,107-H ) :   0.9457 B( 43-C , 49-C ) :   1.0845 B( 43-C ,108-H ) :   0.9465
B( 43-C ,109-H ) :   0.9454 B( 44-C , 46-C ) :   1.0859 B( 44-C ,110-H ) :   0.9456
B( 44-C ,111-H ) :   0.9465 B( 45-C , 47-C ) :   1.0841 B( 45-C ,112-H ) :   0.9462
B( 45-C ,113-H ) :   0.9464 B( 46-C ,114-H ) :   0.9734 B( 46-C ,115-H ) :   0.9737
B( 46-C ,116-H ) :   0.9729 B( 47-C ,117-H ) :   0.9733 B( 47-C ,118-H ) :   0.9738
B( 47-C ,119-H ) :   0.9733 B( 48-C ,120-H ) :   0.9684 B( 48-C ,121-H ) :   0.9728
B( 48-C ,122-H ) :   0.9716 B( 49-C ,123-H ) :   0.9725 B( 49-C ,124-H ) :   0.9735
B( 49-C ,125-H ) :   0.9741 B( 50-C , 51-C ) :   1.6424 B( 50-C ,126-H ) :   0.9484
B( 51-C , 52-C ) :   0.9549 B( 51-C , 55-C ) :   1.0584 B( 52-C , 53-C ) :   0.9308
B( 52-C , 60-O ) :   2.2529 B( 53-C , 54-C ) :   1.3434 B( 53-C , 56-C ) :   1.3433
B( 54-C , 55-C ) :   1.0278 B( 54-C , 59-C ) :   1.3372 B( 55-C , 61-C ) :   1.6667
B( 56-C , 57-C ) :   1.3347 B( 56-C ,127-H ) :   1.0153 B( 57-C , 58-C ) :   1.2926
B( 57-C , 67-F ) :   1.1005 B( 58-C , 59-C ) :   1.3502 B( 58-C , 66-F ) :   1.1088
B( 59-C ,128-H ) :   0.9925 B( 61-C , 62-C ) :   1.1416 B( 61-C , 63-C ) :   1.1168
B( 62-C , 65-N ) :   2.9979 B( 63-C , 64-N ) :   2.9937 B( 68-C , 69-C ) :   0.9580
B( 68-C , 72-C ) :   1.0673 B( 68-C , 85-C ) :   1.6484 B( 69-C , 70-C ) :   0.9269
B( 69-C , 77-O ) :   2.2550 B( 70-C , 71-C ) :   1.3437 B( 70-C , 73-C ) :   1.3452
B( 71-C , 72-C ) :   1.0317 B( 71-C , 76-C ) :   1.3371 B( 72-C , 78-C ) :   1.6509
B( 73-C , 74-C ) :   1.3341 B( 73-C ,129-H ) :   1.0147 B( 74-C , 75-C ) :   1.2922
B( 74-C , 83-F ) :   1.0998 B( 75-C , 76-C ) :   1.3500 B( 75-C , 84-F ) :   1.1116
B( 76-C ,130-H ) :   0.9929 B( 78-C , 79-C ) :   1.1610 B( 78-C , 80-C ) :   1.1232
B( 79-C , 81-N ) :   2.9361 B( 80-C , 82-N ) :   2.9533 B( 85-C ,131-H ) :   0.9389

-----------------------------------------------------------------------------
         ABSORPTION SPECTRUM VIA TRANSITION ELECTRIC DIPOLE MOMENTS
-----------------------------------------------------------------------------
State   Energy  Wavelength   fosc         T2         TX        TY        TZ
        (cm-1)    (nm)                  (au**2)     (au)      (au)      (au)
-----------------------------------------------------------------------------
   0   19113.3    523.2   1.435874035  24.73180  -3.96928   1.06413  -2.80075
   1   24194.4    413.3   0.490536508   6.67470   1.50162   0.57491  -2.02220
   2   29672.0    337.0   0.250893063   2.78367  -1.53149   0.11023  -0.65274
   3   30721.2    325.5   0.089679946   0.96102  -0.19201  -0.66779   0.69152
   4   32368.2    308.9   0.098855557   1.00544   0.59790  -0.22989   0.77143
   5   33449.1    299.0   0.685852902   6.75029   1.93041  -0.46781   1.67480
   6   33726.9    296.5   0.036592708   0.35719  -0.40959   0.42932  -0.07144
   7   34512.2    289.8   0.194163458   1.85213   0.36013   0.05130   1.31141
   8   34741.5    287.8   0.088751872   0.84102   0.75988  -0.50192   0.10805
   9   34966.3    286.0   0.136158448   1.28195   1.11457   0.07366   0.18508
  10   36336.1    275.2   0.122260347   1.10770  -0.21007  -0.43809  -0.93362
  11   36510.4    273.9   0.109047180   0.98327  -0.88834   0.41500  -0.14799
  12   37600.6    266.0   0.193580024   1.69489  -0.91650   0.92458  -0.00896
  13   37857.0    264.2   0.106595396   0.92698  -0.35104  -0.56589  -0.69535
  14   38052.0    262.8   0.041651059   0.36035   0.17570   0.51575   0.25196
  15   38891.7    257.1   0.174365590   1.47598  -0.75736   0.45471  -0.83403
  16   39103.1    255.7   0.260694299   2.19481  -1.17602   0.89233   0.12465
  17   39513.2    253.1   0.003843470   0.03202   0.12672   0.09270  -0.08586
  18   39965.6    250.2   0.059895864   0.49338   0.23223   0.15226   0.64519

Dispersion correction           -0.091135941
FINAL SINGLE POINT ENERGY     -4408.827771265886

DIPOLE MOMENT
-------------
                                X             Y             Z
Electronic contribution:    -40.13903       6.83667      43.92290
Nuclear contribution   :     41.95873      -5.32277     -45.77570
                        -----------------------------------------
Total Dipole Moment    :      1.81970       1.51390      -1.85281
                        -----------------------------------------
Magnitude (a.u.)       :      3.00601
Magnitude (Debye)      :      7.64067

Rotational constants in cm-1:     0.000900     0.000363     0.000319
Rotational constants in MHz :    26.992687    10.892799     9.570322

                             ****ORCA TERMINATED NORMALLY****
TOTAL RUN TIME: 0 days 0 hours 26 minutes 15 seconds 724 msec
