                         Program Version 4.2.0 -  RELEASE  -
|  1> # ORCA input file
|  2> # SCF done       -200.377346433155          0.000664471229
|  3> ! wb97x-d3 def2-SVP def2/J RIJCOSX Grid4 TightSCF
|  4> %maxcore 5000
|  5> %tddft
|  6>     Mode sTDA
|  7>     Ethresh 5.0
|  8>     maxcore 5000
|  9> end
| 10>
| 11> %pal
| 12>   nprocs 6
| 13>   end
| 14> * xyz 0 1
| 15>    C        0.27969         0.36479        -1.43137
| 16>    O        0.04290         1.52579        -1.70743
| 17>    C       -0.68859        -0.61226        -0.88744
| 18>    C       -2.01288        -0.41750        -0.55585
| 19>    C       -2.73006        -1.49519        -0.05079
| 20>    C       -2.11126        -2.73859         0.10969
| 21>    C       -0.77570        -2.93004        -0.22901
| 22>    C       -0.05763        -1.85786        -0.73174
| 23>    C        1.33436        -1.73775        -1.16753
| 24>    C        2.24096        -2.76724        -1.18920
| 25>    C        3.58115        -2.69684        -1.62499
| 26>    N        4.67940        -2.75354        -1.95907
| 27>    C        1.94928        -4.08386        -0.77373
| 28>    N        1.78689        -5.17333        -0.44937
| 29>    C        1.54653        -0.36125        -1.56506
| 30>    C        2.75661         0.17085        -1.94437
| 31>    C        3.10441         1.47310        -2.31639
| 32>    C        4.43297         1.85119        -2.60237
| 33>    C        4.52810         3.16691        -3.03376
| 34>    C        3.30841         3.82774        -3.08738
| 35>    S        2.00672         2.80003        -2.60990
| 36>    C        2.66355         7.87692        -4.20527
| 37>    C        2.39903         9.23355        -4.61761
| 38>    C        3.03461        10.39880        -4.26929
| 39>    C        2.45616        11.55115        -4.82319
| 40>    C        1.36122        11.26338        -5.64328
| 41>    S        1.06599         9.54352        -5.68313
| 42>    C        0.68783        12.16789        -6.48601
| 43>    C       -0.46939        11.99089        -7.19166
| 44>    C       -1.51004        10.99504        -7.08935
| 45>    C       -1.92492        10.37705        -5.93722
| 46>    C       -2.92813         9.39209        -5.88092
| 47>    N       -3.69776         8.54503        -5.78598
| 48>    C       -1.41917        10.72844        -4.66798
| 49>    N       -1.07376        11.04284        -3.61926
| 50>    C       -2.21595        10.97630        -8.36775
| 51>    C       -3.18789        10.12380        -8.86109
| 52>    C       -3.71945        10.38173       -10.12018
| 53>    C       -3.29632        11.48223       -10.87302
| 54>    C       -2.32214        12.34103       -10.37728
| 55>    C       -1.78831        12.07699        -9.13317
| 56>    C       -0.72966        12.81059        -8.39819
| 57>    O       -0.16356        13.82611        -8.73226
| 58>   Cl       -3.98131        11.77697       -12.42053
| 59>   Cl       -4.91539         9.32374       -10.75313
| 60>    C        1.59625         6.98879        -4.08740
| 61>    C        1.77583         5.67381        -3.69691
| 62>    C        3.08854         5.20025        -3.45997
| 63>    C        4.15645         6.09564        -3.58161
| 64>    C        3.97136         7.42216        -3.92763
| 65>    O        4.96979         8.33156        -4.05109
| 66>    C        6.31486         7.91930        -3.89233
| 67>    C        7.19304         9.13527        -4.14316
| 68>    O        0.78481         4.78146        -3.50782
| 69>    C       -0.57578         5.13832        -3.68297
| 70>    C       -0.99501         5.15932        -5.14856
| 71>   Cl       -4.38122        -1.29447         0.37799
| 72>   Cl       -3.00739        -4.06312         0.73763
| 73>    C        2.90291        12.90273        -4.52160
| 74>    C        5.58573         0.95995        -2.47461
| 75>    C        4.26378        13.18228        -4.39026
| 76>    C        4.68928        14.46117        -4.09646
| 77>    C        3.77625        15.49404        -3.91069
| 78>    C        2.42076        15.21080        -4.02983
| 79>    C        1.98462        13.93563        -4.32894
| 80>    C        4.24515        16.89073        -3.62885
| 81>    C        4.45097        17.65618        -4.93817
| 82>    C        6.46155         0.80552        -3.54686
| 83>    C        7.52422        -0.07124        -3.46077
| 84>    C        7.75068        -0.80733        -2.30413
| 85>    C        6.89930        -0.62164        -1.22212
| 86>    C        5.82940         0.24678        -1.30257
| 87>    C        8.91688        -1.74568        -2.20782
| 88>    C       10.14851        -1.01878        -1.66331
| 89>    H       -2.47676         0.54762        -0.68416
| 90>    H       -0.33530        -3.90343        -0.08981
| 91>    H        3.59676        -0.51362        -1.94701
| 92>    H        5.46910         3.61698        -3.29564
| 93>    H        3.86481        10.42019        -3.58905
| 94>    H        1.21732        13.09327        -6.69506
| 95>    H       -3.53209         9.26680        -8.30477
| 96>    H       -1.99170        13.19357       -10.94930
| 97>    H        0.60654         7.37131        -4.28041
| 98>    H        5.14843         5.73266        -3.37450
| 99>    H        6.55175         7.12377        -4.61163
|100>    H        6.47635         7.53764        -2.87505
|101>    H        6.97191         9.91161        -3.41567
|102>    H        8.23978         8.85872        -4.05933
|103>    H        7.00582         9.52726        -5.13922
|104>    H       -1.11893         4.35398        -3.14985
|105>    H       -0.78270         6.10019        -3.19977
|106>    H       -0.85044         4.17572        -5.58778
|107>    H       -2.04470         5.42926        -5.22065
|108>    H       -0.41059         5.87959        -5.71649
|109>    H        4.98546        12.39374        -4.54553
|110>    H        5.74685        14.66494        -4.00614
|111>    H        1.69721        15.99814        -3.87596
|112>    H        0.92678        13.72223        -4.37223
|113>    H        3.50545        17.41359        -3.01965
|114>    H        5.18645        16.86254        -3.07632
|115>    H        3.52120        17.70084        -5.50054
|116>    H        4.78408        18.67116        -4.73551
|117>    H        5.19896        17.16088        -5.55323
|118>    H        6.28095         1.35275        -4.46100
|119>    H        8.18131        -0.19747        -4.30957
|120>    H        7.06865        -1.17507        -0.31032
|121>    H        5.18477         0.39075        -0.44684
|122>    H        8.66471        -2.57590        -1.54627
|123>    H        9.14593        -2.15205        -3.19465
|124>    H        9.94436        -0.61582        -0.67377
|125>    H       10.99222        -1.70115        -1.59296
|126>    H       10.42265        -0.19427        -2.31814
|127> *
|128>
|129>                          ****END OF INPUT****

CARTESIAN COORDINATES (ANGSTROEM)
---------------------------------
  C      0.279690    0.364790   -1.431370
  O      0.042900    1.525790   -1.707430
  C     -0.688590   -0.612260   -0.887440
  C     -2.012880   -0.417500   -0.555850
  C     -2.730060   -1.495190   -0.050790
  C     -2.111260   -2.738590    0.109690
  C     -0.775700   -2.930040   -0.229010
  C     -0.057630   -1.857860   -0.731740
  C      1.334360   -1.737750   -1.167530
  C      2.240960   -2.767240   -1.189200
  C      3.581150   -2.696840   -1.624990
  N      4.679400   -2.753540   -1.959070
  C      1.949280   -4.083860   -0.773730
  N      1.786890   -5.173330   -0.449370
  C      1.546530   -0.361250   -1.565060
  C      2.756610    0.170850   -1.944370
  C      3.104410    1.473100   -2.316390
  C      4.432970    1.851190   -2.602370
  C      4.528100    3.166910   -3.033760
  C      3.308410    3.827740   -3.087380
  S      2.006720    2.800030   -2.609900
  C      2.663550    7.876920   -4.205270
  C      2.399030    9.233550   -4.617610
  C      3.034610   10.398800   -4.269290
  C      2.456160   11.551150   -4.823190
  C      1.361220   11.263380   -5.643280
  S      1.065990    9.543520   -5.683130
  C      0.687830   12.167890   -6.486010
  C     -0.469390   11.990890   -7.191660
  C     -1.510040   10.995040   -7.089350
  C     -1.924920   10.377050   -5.937220
  C     -2.928130    9.392090   -5.880920
  N     -3.697760    8.545030   -5.785980
  C     -1.419170   10.728440   -4.667980
  N     -1.073760   11.042840   -3.619260
  C     -2.215950   10.976300   -8.367750
  C     -3.187890   10.123800   -8.861090
  C     -3.719450   10.381730  -10.120180
  C     -3.296320   11.482230  -10.873020
  C     -2.322140   12.341030  -10.377280
  C     -1.788310   12.076990   -9.133170
  C     -0.729660   12.810590   -8.398190
  O     -0.163560   13.826110   -8.732260
  Cl    -3.981310   11.776970  -12.420530
  Cl    -4.915390    9.323740  -10.753130
  C      1.596250    6.988790   -4.087400
  C      1.775830    5.673810   -3.696910
  C      3.088540    5.200250   -3.459970
  C      4.156450    6.095640   -3.581610
  C      3.971360    7.422160   -3.927630
  O      4.969790    8.331560   -4.051090
  C      6.314860    7.919300   -3.892330
  C      7.193040    9.135270   -4.143160
  O      0.784810    4.781460   -3.507820
  C     -0.575780    5.138320   -3.682970
  C     -0.995010    5.159320   -5.148560
  Cl    -4.381220   -1.294470    0.377990
  Cl    -3.007390   -4.063120    0.737630
  C      2.902910   12.902730   -4.521600
  C      5.585730    0.959950   -2.474610
  C      4.263780   13.182280   -4.390260
  C      4.689280   14.461170   -4.096460
  C      3.776250   15.494040   -3.910690
  C      2.420760   15.210800   -4.029830
  C      1.984620   13.935630   -4.328940
  C      4.245150   16.890730   -3.628850
  C      4.450970   17.656180   -4.938170
  C      6.461550    0.805520   -3.546860
  C      7.524220   -0.071240   -3.460770
  C      7.750680   -0.807330   -2.304130
  C      6.899300   -0.621640   -1.222120
  C      5.829400    0.246780   -1.302570
  C      8.916880   -1.745680   -2.207820
  C     10.148510   -1.018780   -1.663310
  H     -2.476760    0.547620   -0.684160
  H     -0.335300   -3.903430   -0.089810
  H      3.596760   -0.513620   -1.947010
  H      5.469100    3.616980   -3.295640
  H      3.864810   10.420190   -3.589050
  H      1.217320   13.093270   -6.695060
  H     -3.532090    9.266800   -8.304770
  H     -1.991700   13.193570  -10.949300
  H      0.606540    7.371310   -4.280410
  H      5.148430    5.732660   -3.374500
  H      6.551750    7.123770   -4.611630
  H      6.476350    7.537640   -2.875050
  H      6.971910    9.911610   -3.415670
  H      8.239780    8.858720   -4.059330
  H      7.005820    9.527260   -5.139220
  H     -1.118930    4.353980   -3.149850
  H     -0.782700    6.100190   -3.199770
  H     -0.850440    4.175720   -5.587780
  H     -2.044700    5.429260   -5.220650
  H     -0.410590    5.879590   -5.716490
  H      4.985460   12.393740   -4.545530
  H      5.746850   14.664940   -4.006140
  H      1.697210   15.998140   -3.875960
  H      0.926780   13.722230   -4.372230
  H      3.505450   17.413590   -3.019650
  H      5.186450   16.862540   -3.076320
  H      3.521200   17.700840   -5.500540
  H      4.784080   18.671160   -4.735510
  H      5.198960   17.160880   -5.553230
  H      6.280950    1.352750   -4.461000
  H      8.181310   -0.197470   -4.309570
  H      7.068650   -1.175070   -0.310320
  H      5.184770    0.390750   -0.446840
  H      8.664710   -2.575900   -1.546270
  H      9.145930   -2.152050   -3.194650
  H      9.944360   -0.615820   -0.673770
  H     10.992220   -1.701150   -1.592960
  H     10.422650   -0.194270   -2.318140

 Total Charge           Charge          ....    0
 Multiplicity           Mult            ....    1
 Number of Electrons    NEL             ....  558
 Basis Dimension        Dim             .... 1250

ORBITAL ENERGIES
----------------

  NO   OCC          E(Eh)            E(eV)
   0   2.0000    -101.624621     -2765.3465
   1   2.0000    -101.624126     -2765.3331
   2   2.0000    -101.620941     -2765.2464
   3   2.0000    -101.618917     -2765.1913
   4   2.0000     -88.991647     -2421.5858
   5   2.0000     -88.978653     -2421.2322
   6   2.0000     -19.295473      -525.0565
   7   2.0000     -19.293982      -525.0159
   8   2.0000     -19.252295      -523.8816
   9   2.0000     -19.252027      -523.8743
  10   2.0000     -14.454246      -393.3200
  11   2.0000     -14.448411      -393.1612
  12   2.0000     -14.446829      -393.1182
  13   2.0000     -14.443734      -393.0340
  14   2.0000     -10.402516      -283.0668
  15   2.0000     -10.400019      -282.9989
  16   2.0000     -10.391499      -282.7671
  17   2.0000     -10.390673      -282.7446
  18   2.0000     -10.386436      -282.6293
  19   2.0000     -10.385748      -282.6106
  20   2.0000     -10.380861      -282.4776
  21   2.0000     -10.380529      -282.4686
  22   2.0000     -10.379656      -282.4448
  23   2.0000     -10.378385      -282.4102
  24   2.0000     -10.374678      -282.3093
  25   2.0000     -10.371078      -282.2114
  26   2.0000     -10.370831      -282.2047
  27   2.0000     -10.360579      -281.9257
  28   2.0000     -10.358871      -281.8792
  29   2.0000     -10.357156      -281.8326
  30   2.0000     -10.355116      -281.7770
  31   2.0000     -10.350758      -281.6584
  32   2.0000     -10.350269      -281.6451
  33   2.0000     -10.349362      -281.6205
  34   2.0000     -10.348063      -281.5851
  35   2.0000     -10.347560      -281.5714
  36   2.0000     -10.347338      -281.5654
  37   2.0000     -10.345361      -281.5116
  38   2.0000     -10.344067      -281.4764
  39   2.0000     -10.343487      -281.4606
  40   2.0000     -10.342775      -281.4412
  41   2.0000     -10.338431      -281.3230
  42   2.0000     -10.338025      -281.3120
  43   2.0000     -10.337484      -281.2972
  44   2.0000     -10.336161      -281.2613
  45   2.0000     -10.335286      -281.2374
  46   2.0000     -10.333907      -281.1999
  47   2.0000     -10.333729      -281.1951
  48   2.0000     -10.329355      -281.0760
  49   2.0000     -10.328585      -281.0551
  50   2.0000     -10.327092      -281.0145
  51   2.0000     -10.322040      -280.8770
  52   2.0000     -10.321921      -280.8737
  53   2.0000     -10.321202      -280.8542
  54   2.0000     -10.319517      -280.8083
  55   2.0000     -10.314376      -280.6684
  56   2.0000     -10.313714      -280.6504
  57   2.0000     -10.312056      -280.6053
  58   2.0000     -10.310645      -280.5669
  59   2.0000     -10.309903      -280.5467
  60   2.0000     -10.309622      -280.5391
  61   2.0000     -10.306396      -280.4513
  62   2.0000     -10.306127      -280.4440
  63   2.0000     -10.304295      -280.3941
  64   2.0000     -10.302362      -280.3415
  65   2.0000     -10.301535      -280.3190
  66   2.0000     -10.301445      -280.3166
  67   2.0000     -10.300872      -280.3010
  68   2.0000     -10.295613      -280.1579
  69   2.0000     -10.294210      -280.1197
  70   2.0000     -10.293844      -280.1097
  71   2.0000     -10.291762      -280.0531
  72   2.0000     -10.290652      -280.0229
  73   2.0000     -10.284035      -279.8428
  74   2.0000      -9.601424      -261.2680
  75   2.0000      -9.600882      -261.2533
  76   2.0000      -9.597755      -261.1682
  77   2.0000      -9.595695      -261.1121
  78   2.0000      -8.105116      -220.5514
  79   2.0000      -8.090134      -220.1437
  80   2.0000      -7.361426      -200.3146
  81   2.0000      -7.360917      -200.3007
  82   2.0000      -7.357754      -200.2147
  83   2.0000      -7.355724      -200.1594
  84   2.0000      -7.351464      -200.0435
  85   2.0000      -7.350908      -200.0284
  86   2.0000      -7.350808      -200.0257
  87   2.0000      -7.350255      -200.0106
  88   2.0000      -7.347794      -199.9436
  89   2.0000      -7.347139      -199.9258
  90   2.0000      -7.345717      -199.8871
  91   2.0000      -7.345070      -199.8695
  92   2.0000      -6.064639      -165.0272
  93   2.0000      -6.060541      -164.9157
  94   2.0000      -6.057324      -164.8282
  95   2.0000      -6.049684      -164.6203
  96   2.0000      -6.044916      -164.4905
  97   2.0000      -6.042645      -164.4287
  98   2.0000      -1.204110       -32.7655
  99   2.0000      -1.202438       -32.7200
 100   2.0000      -1.170094       -31.8399
 101   2.0000      -1.169779       -31.8313
 102   2.0000      -1.069339       -29.0982
 103   2.0000      -1.063930       -28.9510
 104   2.0000      -1.055037       -28.7090
 105   2.0000      -1.048390       -28.5282
 106   2.0000      -1.042759       -28.3749
 107   2.0000      -1.032538       -28.0968
 108   2.0000      -1.031296       -28.0630
 109   2.0000      -1.027898       -27.9705
 110   2.0000      -1.026304       -27.9272
 111   2.0000      -1.022878       -27.8339
 112   2.0000      -1.006336       -27.3838
 113   2.0000      -0.997660       -27.1477
 114   2.0000      -0.995936       -27.1008
 115   2.0000      -0.993078       -27.0230
 116   2.0000      -0.986293       -26.8384
 117   2.0000      -0.971976       -26.4488
 118   2.0000      -0.966496       -26.2997
 119   2.0000      -0.952716       -25.9247
 120   2.0000      -0.940770       -25.5996
 121   2.0000      -0.934421       -25.4269
 122   2.0000      -0.928856       -25.2755
 123   2.0000      -0.919922       -25.0324
 124   2.0000      -0.915300       -24.9066
 125   2.0000      -0.911577       -24.8053
 126   2.0000      -0.901673       -24.5358
 127   2.0000      -0.898440       -24.4478
 128   2.0000      -0.895220       -24.3602
 129   2.0000      -0.893140       -24.3036
 130   2.0000      -0.884380       -24.0652
 131   2.0000      -0.877092       -23.8669
 132   2.0000      -0.876835       -23.8599
 133   2.0000      -0.866742       -23.5852
 134   2.0000      -0.862562       -23.4715
 135   2.0000      -0.855527       -23.2801
 136   2.0000      -0.845455       -23.0060
 137   2.0000      -0.835559       -22.7367
 138   2.0000      -0.829448       -22.5704
 139   2.0000      -0.816051       -22.2059
 140   2.0000      -0.804460       -21.8905
 141   2.0000      -0.799783       -21.7632
 142   2.0000      -0.794099       -21.6085
 143   2.0000      -0.788226       -21.4487
 144   2.0000      -0.771890       -21.0042
 145   2.0000      -0.760791       -20.7022
 146   2.0000      -0.760504       -20.6944
 147   2.0000      -0.752698       -20.4820
 148   2.0000      -0.744383       -20.2557
 149   2.0000      -0.738012       -20.0823
 150   2.0000      -0.735520       -20.0145
 151   2.0000      -0.730888       -19.8885
 152   2.0000      -0.728350       -19.8194
 153   2.0000      -0.724171       -19.7057
 154   2.0000      -0.718883       -19.5618
 155   2.0000      -0.715704       -19.4753
 156   2.0000      -0.709051       -19.2943
 157   2.0000      -0.699624       -19.0377
 158   2.0000      -0.694196       -18.8900
 159   2.0000      -0.690569       -18.7913
 160   2.0000      -0.688091       -18.7239
 161   2.0000      -0.680248       -18.5105
 162   2.0000      -0.668723       -18.1969
 163   2.0000      -0.662804       -18.0358
 164   2.0000      -0.659674       -17.9506
 165   2.0000      -0.654908       -17.8209
 166   2.0000      -0.654694       -17.8151
 167   2.0000      -0.649160       -17.6645
 168   2.0000      -0.645109       -17.5543
 169   2.0000      -0.636578       -17.3222
 170   2.0000      -0.631447       -17.1825
 171   2.0000      -0.627724       -17.0812
 172   2.0000      -0.620970       -16.8975
 173   2.0000      -0.617333       -16.7985
 174   2.0000      -0.611461       -16.6387
 175   2.0000      -0.601389       -16.3646
 176   2.0000      -0.596394       -16.2287
 177   2.0000      -0.594249       -16.1703
 178   2.0000      -0.591549       -16.0969
 179   2.0000      -0.586360       -15.9557
 180   2.0000      -0.585329       -15.9276
 181   2.0000      -0.583711       -15.8836
 182   2.0000      -0.582435       -15.8489
 183   2.0000      -0.580613       -15.7993
 184   2.0000      -0.579589       -15.7714
 185   2.0000      -0.578165       -15.7327
 186   2.0000      -0.577365       -15.7109
 187   2.0000      -0.575638       -15.6639
 188   2.0000      -0.569889       -15.5075
 189   2.0000      -0.566015       -15.4020
 190   2.0000      -0.564722       -15.3669
 191   2.0000      -0.561934       -15.2910
 192   2.0000      -0.558299       -15.1921
 193   2.0000      -0.554843       -15.0980
 194   2.0000      -0.549842       -14.9620
 195   2.0000      -0.549001       -14.9391
 196   2.0000      -0.544435       -14.8148
 197   2.0000      -0.543180       -14.7807
 198   2.0000      -0.542983       -14.7753
 199   2.0000      -0.540193       -14.6994
 200   2.0000      -0.538996       -14.6668
 201   2.0000      -0.536496       -14.5988
 202   2.0000      -0.535652       -14.5758
 203   2.0000      -0.534054       -14.5323
 204   2.0000      -0.533249       -14.5104
 205   2.0000      -0.531073       -14.4512
 206   2.0000      -0.529975       -14.4213
 207   2.0000      -0.526940       -14.3388
 208   2.0000      -0.525107       -14.2889
 209   2.0000      -0.523838       -14.2544
 210   2.0000      -0.521818       -14.1994
 211   2.0000      -0.517247       -14.0750
 212   2.0000      -0.515977       -14.0405
 213   2.0000      -0.514065       -13.9884
 214   2.0000      -0.511707       -13.9242
 215   2.0000      -0.510820       -13.9001
 216   2.0000      -0.505985       -13.7685
 217   2.0000      -0.504797       -13.7362
 218   2.0000      -0.501448       -13.6451
 219   2.0000      -0.500695       -13.6246
 220   2.0000      -0.496992       -13.5238
 221   2.0000      -0.494825       -13.4649
 222   2.0000      -0.493635       -13.4325
 223   2.0000      -0.489671       -13.3246
 224   2.0000      -0.486139       -13.2285
 225   2.0000      -0.483522       -13.1573
 226   2.0000      -0.481084       -13.0910
 227   2.0000      -0.479037       -13.0353
 228   2.0000      -0.477528       -12.9942
 229   2.0000      -0.476189       -12.9578
 230   2.0000      -0.472874       -12.8675
 231   2.0000      -0.470709       -12.8086
 232   2.0000      -0.469677       -12.7806
 233   2.0000      -0.467923       -12.7328
 234   2.0000      -0.466196       -12.6858
 235   2.0000      -0.464155       -12.6303
 236   2.0000      -0.462466       -12.5843
 237   2.0000      -0.461604       -12.5609
 238   2.0000      -0.461181       -12.5494
 239   2.0000      -0.459576       -12.5057
 240   2.0000      -0.458399       -12.4737
 241   2.0000      -0.457727       -12.4554
 242   2.0000      -0.457210       -12.4413
 243   2.0000      -0.454447       -12.3661
 244   2.0000      -0.453570       -12.3423
 245   2.0000      -0.452104       -12.3024
 246   2.0000      -0.450666       -12.2632
 247   2.0000      -0.445341       -12.1183
 248   2.0000      -0.442992       -12.0544
 249   2.0000      -0.441842       -12.0231
 250   2.0000      -0.441135       -12.0039
 251   2.0000      -0.440346       -11.9824
 252   2.0000      -0.439416       -11.9571
 253   2.0000      -0.435068       -11.8388
 254   2.0000      -0.433229       -11.7888
 255   2.0000      -0.432318       -11.7640
 256   2.0000      -0.431884       -11.7522
 257   2.0000      -0.418286       -11.3821
 258   2.0000      -0.415201       -11.2982
 259   2.0000      -0.411309       -11.1923
 260   2.0000      -0.410797       -11.1784
 261   2.0000      -0.406799       -11.0696
 262   2.0000      -0.392917       -10.6918
 263   2.0000      -0.381676       -10.3859
 264   2.0000      -0.374548       -10.1920
 265   2.0000      -0.373718       -10.1694
 266   2.0000      -0.368006       -10.0140
 267   2.0000      -0.366773        -9.9804
 268   2.0000      -0.361169        -9.8279
 269   2.0000      -0.360637        -9.8134
 270   2.0000      -0.359051        -9.7703
 271   2.0000      -0.348478        -9.4826
 272   2.0000      -0.341572        -9.2947
 273   2.0000      -0.337590        -9.1863
 274   2.0000      -0.333230        -9.0676
 275   2.0000      -0.329025        -8.9532
 276   2.0000      -0.319070        -8.6823
 277   2.0000      -0.308313        -8.3896
 278   2.0000      -0.280917        -7.6442
 279   0.0000      -0.076057        -2.0696
 280   0.0000      -0.061590        -1.6760
 281   0.0000      -0.039526        -1.0756
 282   0.0000      -0.034639        -0.9426
 283   0.0000      -0.000519        -0.0141

MULLIKEN ATOMIC CHARGES
-----------------------
   0 C :    0.226031
   1 O :   -0.190420
   2 C :   -0.060820
   3 C :   -0.017156
   4 C :    0.043474
   5 C :    0.031313
   6 C :   -0.002254
   7 C :    0.013374
   8 C :    0.294373
   9 C :   -0.382991
  10 C :   -0.139674
  11 N :    0.119898
  12 C :   -0.133197
  13 N :    0.103864
  14 C :   -0.150202
  15 C :   -0.020942
  16 C :   -0.099071
  17 C :    0.106005
  18 C :   -0.042238
  19 C :   -0.041961
  20 S :    0.221733
  21 C :    0.038493
  22 C :   -0.057545
  23 C :    0.000768
  24 C :    0.151057
  25 C :   -0.163806
  26 S :    0.129029
  27 C :    0.035939
  28 C :   -0.182655
  29 C :    0.241593
  30 C :   -0.359029
  31 C :   -0.113935
  32 N :    0.101378
  33 C :   -0.153448
  34 N :    0.133175
  35 C :    0.002320
  36 C :   -0.003216
  37 C :    0.034601
  38 C :    0.040283
  39 C :   -0.008585
  40 C :   -0.055496
  41 C :    0.206715
  42 O :   -0.167080
  43 Cl:   -0.046811
  44 Cl:   -0.041516
  45 C :   -0.148383
  46 C :    0.250607
  47 C :    0.063560
  48 C :   -0.171582
  49 C :    0.253514
  50 O :   -0.345009
  51 C :    0.096900
  52 C :   -0.036414
  53 O :   -0.352952
  54 C :    0.126158
  55 C :   -0.078179
  56 Cl:   -0.048542
  57 Cl:   -0.041606
  58 C :   -0.002256
  59 C :   -0.016879
  60 C :   -0.014980
  61 C :   -0.019578
  62 C :   -0.063589
  63 C :   -0.020431
  64 C :   -0.026705
  65 C :    0.010998
  66 C :   -0.023406
  67 C :   -0.001898
  68 C :   -0.022032
  69 C :   -0.055734
  70 C :    0.007792
  71 C :   -0.029816
  72 C :    0.015561
  73 C :   -0.026497
  74 H :    0.025415
  75 H :    0.027100
  76 H :    0.035748
  77 H :   -0.000578
  78 H :    0.014242
  79 H :    0.063737
  80 H :    0.027932
  81 H :    0.030119
  82 H :    0.006195
  83 H :   -0.009303
  84 H :    0.037921
  85 H :    0.042658
  86 H :    0.048608
  87 H :    0.043478
  88 H :    0.051529
  89 H :    0.061693
  90 H :    0.045213
  91 H :    0.052496
  92 H :    0.061705
  93 H :    0.034931
  94 H :    0.003222
  95 H :    0.002047
  96 H :    0.007666
  97 H :    0.030628
  98 H :    0.033350
  99 H :    0.030089
 100 H :    0.033245
 101 H :    0.040331
 102 H :    0.029469
 103 H :    0.000322
 104 H :   -0.000412
 105 H :    0.001569
 106 H :    0.009373
 107 H :    0.038588
 108 H :    0.028225
 109 H :    0.027022
 110 H :    0.039020
 111 H :    0.025417
Sum of atomic charges:    0.0000000

LOEWDIN ATOMIC CHARGES
----------------------
   0 C :    0.089225
   1 O :   -0.165359
   2 C :   -0.046670
   3 C :   -0.001125
   4 C :   -0.135436
   5 C :   -0.131996
   6 C :   -0.010998
   7 C :   -0.017233
   8 C :    0.080097
   9 C :   -0.151520
  10 C :   -0.019079
  11 N :   -0.047511
  12 C :   -0.014569
  13 N :   -0.058485
  14 C :   -0.133582
  15 C :    0.071825
  16 C :   -0.209182
  17 C :   -0.001430
  18 C :   -0.068528
  19 C :   -0.138721
  20 S :    0.537997
  21 C :   -0.056432
  22 C :   -0.117077
  23 C :   -0.047872
  24 C :    0.005301
  25 C :   -0.194466
  26 S :    0.466574
  27 C :    0.065687
  28 C :   -0.125454
  29 C :    0.065526
  30 C :   -0.155998
  31 C :   -0.015003
  32 N :   -0.058962
  33 C :   -0.033262
  34 N :   -0.051612
  35 C :   -0.014163
  36 C :   -0.014606
  37 C :   -0.130624
  38 C :   -0.135869
  39 C :    0.002073
  40 C :   -0.048804
  41 C :    0.091673
  42 O :   -0.145851
  43 Cl:    0.151942
  44 Cl:    0.155299
  45 C :   -0.056499
  46 C :    0.056666
  47 C :   -0.054404
  48 C :   -0.050007
  49 C :    0.057107
  50 O :   -0.101511
  51 C :    0.080369
  52 C :   -0.063991
  53 O :   -0.096467
  54 C :    0.084832
  55 C :   -0.073761
  56 Cl:    0.150840
  57 Cl:    0.153914
  58 C :   -0.040005
  59 C :   -0.043616
  60 C :   -0.010103
  61 C :   -0.026536
  62 C :   -0.010951
  63 C :   -0.024121
  64 C :   -0.006344
  65 C :   -0.032777
  66 C :   -0.051032
  67 C :   -0.015143
  68 C :   -0.025248
  69 C :   -0.008348
  70 C :   -0.013026
  71 C :   -0.018903
  72 C :   -0.030737
  73 C :   -0.053257
  74 H :    0.048119
  75 H :    0.046657
  76 H :    0.050999
  77 H :    0.028052
  78 H :    0.034208
  79 H :    0.056378
  80 H :    0.046332
  81 H :    0.050097
  82 H :    0.026845
  83 H :    0.032108
  84 H :    0.016813
  85 H :    0.017158
  86 H :    0.031229
  87 H :    0.035731
  88 H :    0.033597
  89 H :    0.035776
  90 H :    0.019196
  91 H :    0.034559
  92 H :    0.042293
  93 H :    0.024914
  94 H :    0.031186
  95 H :    0.029674
  96 H :    0.032177
  97 H :    0.037192
  98 H :    0.031037
  99 H :    0.029696
 100 H :    0.027133
 101 H :    0.026827
 102 H :    0.025622
 103 H :    0.029509
 104 H :    0.028642
 105 H :    0.030335
 106 H :    0.030012
 107 H :    0.033286
 108 H :    0.029747
 109 H :    0.024564
 110 H :    0.025839
 111 H :    0.023780

  Mayer bond orders larger than 0.100000
B(  0-C ,  1-O ) :   2.1521 B(  0-C ,  2-C ) :   0.9524 B(  0-C , 14-C ) :   0.9727
B(  2-C ,  3-C ) :   1.3713 B(  2-C ,  7-C ) :   1.3371 B(  3-C ,  4-C ) :   1.3514
B(  3-C , 74-H ) :   1.0133 B(  4-C ,  5-C ) :   1.4122 B(  4-C , 56-Cl) :   1.0491
B(  5-C ,  6-C ) :   1.3685 B(  5-C , 57-Cl) :   1.0778 B(  6-C ,  7-C ) :   1.3709
B(  6-C , 75-H ) :   0.9835 B(  7-C ,  8-C ) :   0.9978 B(  8-C ,  9-C ) :   1.6284
B(  8-C , 14-C ) :   1.1067 B(  9-C , 10-C ) :   1.1358 B(  9-C , 12-C ) :   1.1327
B( 10-C , 11-N ) :   2.9638 B( 12-C , 13-N ) :   2.9668 B( 14-C , 15-C ) :   1.5258
B( 15-C , 16-C ) :   1.3060 B( 15-C , 76-H ) :   0.9352 B( 16-C , 17-C ) :   1.3467
B( 16-C , 20-S ) :   1.0535 B( 17-C , 18-C ) :   1.3843 B( 17-C , 59-C ) :   0.9866
B( 18-C , 19-C ) :   1.4065 B( 18-C , 77-H ) :   0.9936 B( 19-C , 20-S ) :   1.1711
B( 19-C , 47-C ) :   1.0905 B( 21-C , 22-C ) :   1.0408 B( 21-C , 45-C ) :   1.3437
B( 21-C , 49-C ) :   1.3506 B( 22-C , 23-C ) :   1.5111 B( 22-C , 26-S ) :   1.1574
B( 23-C , 24-C ) :   1.2865 B( 23-C , 78-H ) :   0.9963 B( 24-C , 25-C ) :   1.4079
B( 24-C , 58-C ) :   1.0143 B( 25-C , 26-S ) :   1.0879 B( 25-C , 27-C ) :   1.1940
B( 27-C , 28-C ) :   1.6186 B( 27-C , 79-H ) :   0.9431 B( 28-C , 29-C ) :   1.0671
B( 28-C , 41-C ) :   0.9625 B( 29-C , 30-C ) :   1.6439 B( 29-C , 35-C ) :   1.0217
B( 30-C , 31-C ) :   1.1234 B( 30-C , 33-C ) :   1.1454 B( 31-C , 32-N ) :   2.9727
B( 33-C , 34-N ) :   3.0114 B( 35-C , 36-C ) :   1.3740 B( 35-C , 40-C ) :   1.3309
B( 36-C , 37-C ) :   1.3678 B( 36-C , 80-H ) :   0.9888 B( 37-C , 38-C ) :   1.4111
B( 37-C , 44-Cl) :   1.0725 B( 38-C , 39-C ) :   1.3561 B( 38-C , 43-Cl) :   1.0508
B( 39-C , 40-C ) :   1.3758 B( 39-C , 81-H ) :   1.0121 B( 40-C , 41-C ) :   0.9204
B( 41-C , 42-O ) :   2.2439 B( 45-C , 46-C ) :   1.3167 B( 45-C , 82-H ) :   0.9867
B( 46-C , 47-C ) :   1.3244 B( 46-C , 53-O ) :   1.1336 B( 47-C , 48-C ) :   1.3183
B( 48-C , 49-C ) :   1.3195 B( 48-C , 83-H ) :   0.9995 B( 49-C , 50-O ) :   1.1455
B( 50-O , 51-C ) :   0.9247 B( 51-C , 52-C ) :   1.0864 B( 51-C , 84-H ) :   0.9527
B( 51-C , 85-H ) :   0.9519 B( 52-C , 86-H ) :   0.9727 B( 52-C , 87-H ) :   0.9646
B( 52-C , 88-H ) :   0.9716 B( 53-O , 54-C ) :   0.8993 B( 54-C , 55-C ) :   1.0960
B( 54-C , 89-H ) :   0.9578 B( 54-C , 90-H ) :   0.9568 B( 55-C , 91-H ) :   0.9664
B( 55-C , 92-H ) :   0.9651 B( 55-C , 93-H ) :   0.9699 B( 58-C , 60-C ) :   1.3627
B( 58-C , 64-C ) :   1.3603 B( 59-C , 67-C ) :   1.3868 B( 59-C , 71-C ) :   1.3641
B( 60-C , 61-C ) :   1.4070 B( 60-C , 94-H ) :   0.9960 B( 61-C , 62-C ) :   1.3792
B( 61-C , 95-H ) :   0.9945 B( 62-C , 63-C ) :   1.3955 B( 62-C , 65-C ) :   1.0263
B( 63-C , 64-C ) :   1.3945 B( 63-C , 96-H ) :   0.9951 B( 64-C , 97-H ) :   0.9945
B( 65-C , 66-C ) :   1.0830 B( 65-C , 98-H ) :   0.9453 B( 65-C , 99-H ) :   0.9453
B( 66-C ,100-H ) :   0.9735 B( 66-C ,101-H ) :   0.9734 B( 66-C ,102-H ) :   0.9731
B( 67-C , 68-C ) :   1.3980 B( 67-C ,103-H ) :   0.9954 B( 68-C , 69-C ) :   1.3906
B( 68-C ,104-H ) :   0.9927 B( 69-C , 70-C ) :   1.3992 B( 69-C , 72-C ) :   1.0243
B( 70-C , 71-C ) :   1.4011 B( 70-C ,105-H ) :   0.9906 B( 71-C ,106-H ) :   0.9980
B( 72-C , 73-C ) :   1.0839 B( 72-C ,107-H ) :   0.9455 B( 72-C ,108-H ) :   0.9450
B( 73-C ,109-H ) :   0.9736 B( 73-C ,110-H ) :   0.9739 B( 73-C ,111-H ) :   0.9728

-----------------------------------------------------------------------------
         ABSORPTION SPECTRUM VIA TRANSITION ELECTRIC DIPOLE MOMENTS
-----------------------------------------------------------------------------
State   Energy  Wavelength   fosc         T2         TX        TY        TZ
        (cm-1)    (nm)                  (au**2)     (au)      (au)      (au)
-----------------------------------------------------------------------------
   0   20658.8    484.1   1.394368120  22.22018  -1.43613   3.97554  -2.08633
   1   25345.1    394.6   1.242277938  16.13619   2.83355   2.84131  -0.18479
   2   29191.2    342.6   0.188561609   2.12656   0.22694   1.42785  -0.19050
   3   30019.9    333.1   0.085193042   0.93426   0.07723  -0.40668  -0.87345
   4   30604.7    326.7   0.113265409   1.21839  -0.60056  -0.82731  -0.41626
   5   30890.6    323.7   0.252846246   2.69467   1.52509  -0.32295   0.51428
   6   31912.3    313.4   0.030930380   0.31908   0.21803   0.44868   0.26501
   7   33687.2    296.8   0.048423122   0.47322   0.31065  -0.60901  -0.07631
   8   34473.8    290.1   0.148754521   1.42055   0.29648  -0.58857   0.99309
   9   34793.8    287.4   0.055173591   0.52204   0.13516  -0.70632   0.06993
  10   35752.5    279.7   0.507759651   4.67549   0.74428   1.13330  -1.68439
  11   35997.0    277.8   0.472893530   4.32486   2.06470   0.04697   0.24424
  12   36259.8    275.8   0.070927173   0.64397  -0.48631  -0.40149   0.49626
  13   37331.2    267.9   0.893767834   7.88186   1.87707  -1.01709   1.82318
  14   37441.3    267.1   0.198826533   1.74823   0.49770  -0.69285  -1.01019
  15   38367.3    260.6   0.393501118   3.37645   1.27144  -0.96306  -0.91236
  16   39367.8    254.0   0.088419184   0.73940  -0.48276  -0.63368  -0.32371
  17   39490.4    253.2   0.004015687   0.03348   0.06101   0.02370  -0.17086
  18   39967.6    250.2   0.166660842   1.37278  -0.52510   1.04282   0.09786

Dispersion correction           -0.069907744
FINAL SINGLE POINT ENERGY     -5462.591314411043

DIPOLE MOMENT
-------------
                                X             Y             Z
Electronic contribution:   -127.56428     -52.41296     -21.00023
Nuclear contribution   :    130.34654      55.32994      20.40036
                        -----------------------------------------
Total Dipole Moment    :      2.78226       2.91699      -0.59987
                        -----------------------------------------
Magnitude (a.u.)       :      4.07549
Magnitude (Debye)      :     10.35907

Rotational constants in cm-1:     0.000928     0.000318     0.000263
Rotational constants in MHz :    27.822803     9.545834     7.893646

                             ****ORCA TERMINATED NORMALLY****
TOTAL RUN TIME: 0 days 0 hours 11 minutes 37 seconds 416 msec
