                         Program Version 4.2.0 -  RELEASE  -
|  1> # ORCA input file
|  2> # SCF done       -190.244243181403          0.000536920529
|  3> ! wb97x-d3 def2-SVP def2/J RIJCOSX Grid4 TightSCF
|  4> %maxcore 5000
|  5> %tddft
|  6>     Mode sTDA
|  7>     Ethresh 5.0
|  8>     maxcore 5000
|  9> end
| 10>
| 11> %pal
| 12>   nprocs 6
| 13>   end
| 14> * xyz 0 1
| 15>    C        3.53789        -3.07487        -3.11505
| 16>    O        2.80286        -3.85266        -2.51801
| 17>    C        3.98888        -3.20393        -4.51135
| 18>    C        3.68456        -4.18202        -5.43529
| 19>    C        4.23186        -4.07651        -6.70833
| 20>    C        5.06783        -3.00197        -7.02945
| 21>    C        5.37272        -2.01892        -6.09238
| 22>    C        4.82938        -2.11984        -4.82345
| 23>    C        4.95123        -1.26358        -3.64244
| 24>    C        5.72260        -0.13285        -3.56473
| 25>    C        5.86764         0.68963        -2.42773
| 26>    N        6.04062         1.40906        -1.54876
| 27>    C        6.50229         0.36721        -4.62969
| 28>    N        7.15950         0.82724        -5.45035
| 29>    C        4.12974        -1.85010        -2.60208
| 30>    C        3.91869        -1.31565        -1.34915
| 31>    C        3.15551        -1.76463        -0.27000
| 32>   Se        2.13644        -3.37433        -0.19288
| 33>    C        1.67075        -2.87340         1.54187
| 34>    C        2.25617        -1.63917         1.88656
| 35>    C        3.06166        -1.03430         0.93093
| 36>    C        3.77888         0.24472         1.22313
| 37>    C        5.20473        -0.03217         1.70868
| 38>    S        1.81850        -1.06662         3.48762
| 39>    C        0.83064        -2.46651         3.68207
| 40>    C        0.86898        -3.34229         2.58861
| 41>    N        0.03328        -4.40546         2.81609
| 42>    C       -0.36407        -5.26748         1.72396
| 43>    C        0.71943        -6.26922         1.33246
| 44>    C       -0.56467        -4.21345         4.04584
| 45>    C       -0.09953        -2.98197         4.59496
| 46>    C       -0.66338        -2.44330         5.77021
| 47>    N       -0.35026        -1.32759         6.41177
| 48>    S       -1.37199        -1.14465         7.65150
| 49>    N       -2.25934        -2.47095         7.42281
| 50>    C       -1.78452        -3.11795         6.36572
| 51>    C       -2.20240        -4.34816         5.83631
| 52>    C       -1.52545        -4.95967         4.77162
| 53>    N       -1.99716        -6.26549         4.58787
| 54>    C       -1.25461        -7.36018         3.99515
| 55>    C       -1.10209        -8.52377         4.96870
| 56>    C       -3.03904        -6.46647         5.42191
| 57>    C       -3.18557        -5.28889         6.33993
| 58>    S       -5.00575        -5.10056         6.41738
| 59>    C       -4.90269        -6.94614         6.53856
| 60>    C       -3.93208        -7.44866         5.75954
| 61>   Se       -2.75010        -5.92128         8.34710
| 62>    C       -4.52897        -6.48286         8.80957
| 63>    C       -5.29717        -7.43971         7.88198
| 64>    C       -4.83756        -8.89493         8.08670
| 65>    C       -5.14758        -9.42687         9.47930
| 66>    C       -5.08778        -5.99090         9.92923
| 67>    C       -6.45989        -6.30348        10.19937
| 68>    C       -7.33859        -5.96663        11.28669
| 69>    C       -7.00538        -5.34288        12.45891
| 70>    C       -7.92988        -5.02983        13.47607
| 71>    N       -8.64258        -4.75309        14.33194
| 72>    C       -5.68880        -4.95271        12.78447
| 73>    N       -4.63288        -4.63026        13.09664
| 74>    C       -8.67860        -6.43118        10.89526
| 75>    C       -9.89560        -6.38198        11.53770
| 76>    C      -11.01403        -6.91678        10.89230
| 77>    C      -10.90995        -7.49216         9.62697
| 78>    C       -9.68095        -7.54931         8.97268
| 79>    C       -8.58124        -7.01861         9.61192
| 80>    C       -7.19049        -6.93438         9.20888
| 81>    O       -6.72737        -7.38075         8.06229
| 82>   Cl      -12.30262        -8.14052         8.85748
| 83>   Cl        3.87618        -5.27107        -7.88933
| 84>   Cl        5.73501        -2.88164        -8.60667
| 85>   Cl      -12.53609        -6.85538        11.68570
| 86>    H        3.03777        -5.00475        -5.17504
| 87>    H        6.01954        -1.20609        -6.37872
| 88>    H        4.42123        -0.37662        -1.15837
| 89>    H        3.81424         0.89153         0.34552
| 90>    H        3.23297         0.77025         2.00966
| 91>    H        5.77762        -0.55612         0.94717
| 92>    H        5.70524         0.90609         1.92881
| 93>    H        5.18585        -0.63967         2.61053
| 94>    H       -1.29422        -5.76835         1.99105
| 95>    H       -0.56283        -4.62607         0.85457
| 96>    H        1.03149        -6.88522         2.17156
| 97>    H        0.34233        -6.91655         0.54615
| 98>    H        1.59654        -5.74719         0.95069
| 99>    H       -1.76392        -7.71023         3.09058
|100>    H       -0.26778        -6.97943         3.73768
|101>    H       -2.07286        -8.94949         5.20857
|102>    H       -0.48047        -9.29143         4.51661
|103>    H       -0.63406        -8.18737         5.89151
|104>    H       -5.32671        -9.50997         7.32992
|105>    H       -3.76099        -8.92265         7.90969
|106>    H       -6.22017        -9.44592         9.66295
|107>    H       -4.76976       -10.44162         9.57327
|108>    H       -4.67229        -8.81305        10.24222
|109>    H       -4.52876        -5.33943        10.58301
|110>    H      -10.01348        -5.94512        12.51600
|111>    H       -9.60017        -7.99360         7.99388
|112> *
|113>
|114>                          ****END OF INPUT****

CARTESIAN COORDINATES (ANGSTROEM)
---------------------------------
  C      3.537890   -3.074870   -3.115050
  O      2.802860   -3.852660   -2.518010
  C      3.988880   -3.203930   -4.511350
  C      3.684560   -4.182020   -5.435290
  C      4.231860   -4.076510   -6.708330
  C      5.067830   -3.001970   -7.029450
  C      5.372720   -2.018920   -6.092380
  C      4.829380   -2.119840   -4.823450
  C      4.951230   -1.263580   -3.642440
  C      5.722600   -0.132850   -3.564730
  C      5.867640    0.689630   -2.427730
  N      6.040620    1.409060   -1.548760
  C      6.502290    0.367210   -4.629690
  N      7.159500    0.827240   -5.450350
  C      4.129740   -1.850100   -2.602080
  C      3.918690   -1.315650   -1.349150
  C      3.155510   -1.764630   -0.270000
  Se     2.136440   -3.374330   -0.192880
  C      1.670750   -2.873400    1.541870
  C      2.256170   -1.639170    1.886560
  C      3.061660   -1.034300    0.930930
  C      3.778880    0.244720    1.223130
  C      5.204730   -0.032170    1.708680
  S      1.818500   -1.066620    3.487620
  C      0.830640   -2.466510    3.682070
  C      0.868980   -3.342290    2.588610
  N      0.033280   -4.405460    2.816090
  C     -0.364070   -5.267480    1.723960
  C      0.719430   -6.269220    1.332460
  C     -0.564670   -4.213450    4.045840
  C     -0.099530   -2.981970    4.594960
  C     -0.663380   -2.443300    5.770210
  N     -0.350260   -1.327590    6.411770
  S     -1.371990   -1.144650    7.651500
  N     -2.259340   -2.470950    7.422810
  C     -1.784520   -3.117950    6.365720
  C     -2.202400   -4.348160    5.836310
  C     -1.525450   -4.959670    4.771620
  N     -1.997160   -6.265490    4.587870
  C     -1.254610   -7.360180    3.995150
  C     -1.102090   -8.523770    4.968700
  C     -3.039040   -6.466470    5.421910
  C     -3.185570   -5.288890    6.339930
  S     -5.005750   -5.100560    6.417380
  C     -4.902690   -6.946140    6.538560
  C     -3.932080   -7.448660    5.759540
  Se    -2.750100   -5.921280    8.347100
  C     -4.528970   -6.482860    8.809570
  C     -5.297170   -7.439710    7.881980
  C     -4.837560   -8.894930    8.086700
  C     -5.147580   -9.426870    9.479300
  C     -5.087780   -5.990900    9.929230
  C     -6.459890   -6.303480   10.199370
  C     -7.338590   -5.966630   11.286690
  C     -7.005380   -5.342880   12.458910
  C     -7.929880   -5.029830   13.476070
  N     -8.642580   -4.753090   14.331940
  C     -5.688800   -4.952710   12.784470
  N     -4.632880   -4.630260   13.096640
  C     -8.678600   -6.431180   10.895260
  C     -9.895600   -6.381980   11.537700
  C    -11.014030   -6.916780   10.892300
  C    -10.909950   -7.492160    9.626970
  C     -9.680950   -7.549310    8.972680
  C     -8.581240   -7.018610    9.611920
  C     -7.190490   -6.934380    9.208880
  O     -6.727370   -7.380750    8.062290
  Cl   -12.302620   -8.140520    8.857480
  Cl     3.876180   -5.271070   -7.889330
  Cl     5.735010   -2.881640   -8.606670
  Cl   -12.536090   -6.855380   11.685700
  H      3.037770   -5.004750   -5.175040
  H      6.019540   -1.206090   -6.378720
  H      4.421230   -0.376620   -1.158370
  H      3.814240    0.891530    0.345520
  H      3.232970    0.770250    2.009660
  H      5.777620   -0.556120    0.947170
  H      5.705240    0.906090    1.928810
  H      5.185850   -0.639670    2.610530
  H     -1.294220   -5.768350    1.991050
  H     -0.562830   -4.626070    0.854570
  H      1.031490   -6.885220    2.171560
  H      0.342330   -6.916550    0.546150
  H      1.596540   -5.747190    0.950690
  H     -1.763920   -7.710230    3.090580
  H     -0.267780   -6.979430    3.737680
  H     -2.072860   -8.949490    5.208570
  H     -0.480470   -9.291430    4.516610
  H     -0.634060   -8.187370    5.891510
  H     -5.326710   -9.509970    7.329920
  H     -3.760990   -8.922650    7.909690
  H     -6.220170   -9.445920    9.662950
  H     -4.769760  -10.441620    9.573270
  H     -4.672290   -8.813050   10.242220
  H     -4.528760   -5.339430   10.583010
  H    -10.013480   -5.945120   12.516000
  H     -9.600170   -7.993600    7.993880

 Total Charge           Charge          ....    0
 Multiplicity           Mult            ....    1
 Number of Electrons    NEL             ....  594
 Basis Dimension        Dim             .... 1188

ORBITAL ENERGIES
----------------

  NO   OCC          E(Eh)            E(eV)
   0   2.0000    -453.952805    -12352.6838
   1   2.0000    -453.919348    -12351.7734
   2   2.0000    -101.631476     -2765.5330
   3   2.0000    -101.629338     -2765.4749
   4   2.0000    -101.624127     -2765.3331
   5   2.0000    -101.621712     -2765.2674
   6   2.0000     -89.040046     -2422.9028
   7   2.0000     -88.996392     -2421.7149
   8   2.0000     -88.959767     -2420.7183
   9   2.0000     -58.204539     -1583.8260
  10   2.0000     -58.171688     -1582.9321
  11   2.0000     -52.259854     -1422.0629
  12   2.0000     -52.258501     -1422.0261
  13   2.0000     -52.257554     -1422.0003
  14   2.0000     -52.227195     -1421.1742
  15   2.0000     -52.226294     -1421.1497
  16   2.0000     -52.223951     -1421.0859
  17   2.0000     -19.334421      -526.1163
  18   2.0000     -19.272476      -524.4307
  19   2.0000     -14.533782      -395.4843
  20   2.0000     -14.533670      -395.4813
  21   2.0000     -14.476152      -393.9161
  22   2.0000     -14.473832      -393.8530
  23   2.0000     -14.462819      -393.5533
  24   2.0000     -14.455712      -393.3599
  25   2.0000     -14.452228      -393.2651
  26   2.0000     -14.450655      -393.2223
  27   2.0000     -10.417329      -283.4699
  28   2.0000     -10.414122      -283.3827
  29   2.0000     -10.402061      -283.0545
  30   2.0000     -10.398071      -282.9459
  31   2.0000     -10.397601      -282.9331
  32   2.0000     -10.396010      -282.8898
  33   2.0000     -10.389105      -282.7019
  34   2.0000     -10.388812      -282.6939
  35   2.0000     -10.387489      -282.6580
  36   2.0000     -10.386036      -282.6184
  37   2.0000     -10.385723      -282.6099
  38   2.0000     -10.385242      -282.5968
  39   2.0000     -10.384771      -282.5840
  40   2.0000     -10.382496      -282.5221
  41   2.0000     -10.379826      -282.4494
  42   2.0000     -10.377458      -282.3850
  43   2.0000     -10.372010      -282.2367
  44   2.0000     -10.368616      -282.1444
  45   2.0000     -10.367233      -282.1068
  46   2.0000     -10.363906      -282.0162
  47   2.0000     -10.362023      -281.9650
  48   2.0000     -10.360391      -281.9206
  49   2.0000     -10.358656      -281.8734
  50   2.0000     -10.357281      -281.8359
  51   2.0000     -10.357191      -281.8335
  52   2.0000     -10.356868      -281.8247
  53   2.0000     -10.354148      -281.7507
  54   2.0000     -10.353949      -281.7453
  55   2.0000     -10.352755      -281.7128
  56   2.0000     -10.352384      -281.7027
  57   2.0000     -10.351335      -281.6742
  58   2.0000     -10.351088      -281.6674
  59   2.0000     -10.350655      -281.6556
  60   2.0000     -10.349548      -281.6255
  61   2.0000     -10.348477      -281.5964
  62   2.0000     -10.346064      -281.5307
  63   2.0000     -10.345869      -281.5254
  64   2.0000     -10.345113      -281.5048
  65   2.0000     -10.343450      -281.4596
  66   2.0000     -10.343027      -281.4481
  67   2.0000     -10.341059      -281.3945
  68   2.0000     -10.337287      -281.2919
  69   2.0000     -10.337238      -281.2905
  70   2.0000     -10.329787      -281.0878
  71   2.0000     -10.325130      -280.9611
  72   2.0000     -10.323169      -280.9077
  73   2.0000     -10.322891      -280.9002
  74   2.0000     -10.305372      -280.4234
  75   2.0000     -10.303712      -280.3783
  76   2.0000     -10.300205      -280.2828
  77   2.0000     -10.291264      -280.0395
  78   2.0000     -10.287015      -279.9239
  79   2.0000      -9.608253      -261.4539
  80   2.0000      -9.606140      -261.3964
  81   2.0000      -9.600933      -261.2547
  82   2.0000      -9.598462      -261.1874
  83   2.0000      -8.151015      -221.8004
  84   2.0000      -8.109252      -220.6640
  85   2.0000      -8.072648      -219.6679
  86   2.0000      -7.973873      -216.9801
  87   2.0000      -7.940038      -216.0594
  88   2.0000      -7.368268      -200.5008
  89   2.0000      -7.366192      -200.4443
  90   2.0000      -7.360931      -200.3011
  91   2.0000      -7.358494      -200.2348
  92   2.0000      -7.358287      -200.2292
  93   2.0000      -7.357630      -200.2113
  94   2.0000      -7.356155      -200.1711
  95   2.0000      -7.355485      -200.1529
  96   2.0000      -7.350958      -200.0297
  97   2.0000      -7.350336      -200.0128
  98   2.0000      -7.348472      -199.9621
  99   2.0000      -7.347855      -199.9453
 100   2.0000      -6.112676      -166.3344
 101   2.0000      -6.104718      -166.1178
 102   2.0000      -6.103087      -166.0734
 103   2.0000      -6.069286      -165.1537
 104   2.0000      -6.065288      -165.0449
 105   2.0000      -6.060384      -164.9114
 106   2.0000      -6.034411      -164.2047
 107   2.0000      -6.029370      -164.0675
 108   2.0000      -6.021261      -163.8468
 109   2.0000      -5.918511      -161.0509
 110   2.0000      -5.913569      -160.9164
 111   2.0000      -5.907828      -160.7602
 112   2.0000      -5.885624      -160.1560
 113   2.0000      -5.881641      -160.0476
 114   2.0000      -5.871134      -159.7617
 115   2.0000      -2.269142       -61.7465
 116   2.0000      -2.268285       -61.7232
 117   2.0000      -2.262998       -61.5793
 118   2.0000      -2.259074       -61.4725
 119   2.0000      -2.258520       -61.4575
 120   2.0000      -2.236749       -60.8650
 121   2.0000      -2.236630       -60.8618
 122   2.0000      -2.227624       -60.6167
 123   2.0000      -2.224381       -60.5285
 124   2.0000      -2.222379       -60.4740
 125   2.0000      -1.244620       -33.8678
 126   2.0000      -1.186966       -32.2990
 127   2.0000      -1.168053       -31.7843
 128   2.0000      -1.158301       -31.5190
 129   2.0000      -1.152748       -31.3679
 130   2.0000      -1.076430       -29.2911
 131   2.0000      -1.071628       -29.1605
 132   2.0000      -1.062130       -28.9020
 133   2.0000      -1.053263       -28.6607
 134   2.0000      -1.048263       -28.5247
 135   2.0000      -1.040963       -28.3260
 136   2.0000      -1.036783       -28.2123
 137   2.0000      -1.036395       -28.2017
 138   2.0000      -1.032142       -28.0860
 139   2.0000      -1.027040       -27.9472
 140   2.0000      -1.017252       -27.6808
 141   2.0000      -1.010482       -27.4966
 142   2.0000      -1.004032       -27.3211
 143   2.0000      -0.996409       -27.1137
 144   2.0000      -0.995400       -27.0862
 145   2.0000      -0.977980       -26.6122
 146   2.0000      -0.976279       -26.5659
 147   2.0000      -0.964646       -26.2494
 148   2.0000      -0.955042       -25.9880
 149   2.0000      -0.952012       -25.9056
 150   2.0000      -0.943120       -25.6636
 151   2.0000      -0.932240       -25.3676
 152   2.0000      -0.929994       -25.3064
 153   2.0000      -0.915002       -24.8985
 154   2.0000      -0.911168       -24.7942
 155   2.0000      -0.905823       -24.6487
 156   2.0000      -0.902360       -24.5545
 157   2.0000      -0.899473       -24.4759
 158   2.0000      -0.892216       -24.2784
 159   2.0000      -0.874975       -23.8093
 160   2.0000      -0.872211       -23.7341
 161   2.0000      -0.863076       -23.4855
 162   2.0000      -0.851605       -23.1733
 163   2.0000      -0.842868       -22.9356
 164   2.0000      -0.839105       -22.8332
 165   2.0000      -0.833267       -22.6743
 166   2.0000      -0.816229       -22.2107
 167   2.0000      -0.812285       -22.1034
 168   2.0000      -0.809896       -22.0384
 169   2.0000      -0.799711       -21.7612
 170   2.0000      -0.794466       -21.6185
 171   2.0000      -0.785854       -21.3842
 172   2.0000      -0.772111       -21.0102
 173   2.0000      -0.771352       -20.9896
 174   2.0000      -0.759727       -20.6732
 175   2.0000      -0.756029       -20.5726
 176   2.0000      -0.748580       -20.3699
 177   2.0000      -0.744177       -20.2501
 178   2.0000      -0.741071       -20.1656
 179   2.0000      -0.740475       -20.1494
 180   2.0000      -0.737444       -20.0669
 181   2.0000      -0.724619       -19.7179
 182   2.0000      -0.716549       -19.4983
 183   2.0000      -0.705415       -19.1953
 184   2.0000      -0.704154       -19.1610
 185   2.0000      -0.695612       -18.9286
 186   2.0000      -0.688544       -18.7362
 187   2.0000      -0.682083       -18.5604
 188   2.0000      -0.676801       -18.4167
 189   2.0000      -0.667038       -18.1510
 190   2.0000      -0.665216       -18.1015
 191   2.0000      -0.663404       -18.0522
 192   2.0000      -0.654279       -17.8038
 193   2.0000      -0.645389       -17.5619
 194   2.0000      -0.637040       -17.3347
 195   2.0000      -0.636726       -17.3262
 196   2.0000      -0.627298       -17.0696
 197   2.0000      -0.626060       -17.0359
 198   2.0000      -0.623817       -16.9749
 199   2.0000      -0.619715       -16.8633
 200   2.0000      -0.617677       -16.8078
 201   2.0000      -0.611983       -16.6529
 202   2.0000      -0.606939       -16.5156
 203   2.0000      -0.601036       -16.3550
 204   2.0000      -0.595869       -16.2144
 205   2.0000      -0.593515       -16.1504
 206   2.0000      -0.592625       -16.1261
 207   2.0000      -0.591950       -16.1078
 208   2.0000      -0.589276       -16.0350
 209   2.0000      -0.585368       -15.9287
 210   2.0000      -0.582734       -15.8570
 211   2.0000      -0.580957       -15.8086
 212   2.0000      -0.577622       -15.7179
 213   2.0000      -0.575277       -15.6541
 214   2.0000      -0.573582       -15.6080
 215   2.0000      -0.570282       -15.5182
 216   2.0000      -0.566542       -15.4164
 217   2.0000      -0.563482       -15.3331
 218   2.0000      -0.561088       -15.2680
 219   2.0000      -0.557023       -15.1574
 220   2.0000      -0.552312       -15.0292
 221   2.0000      -0.550988       -14.9931
 222   2.0000      -0.550068       -14.9681
 223   2.0000      -0.546985       -14.8842
 224   2.0000      -0.543716       -14.7953
 225   2.0000      -0.542615       -14.7653
 226   2.0000      -0.541139       -14.7251
 227   2.0000      -0.539503       -14.6806
 228   2.0000      -0.530428       -14.4337
 229   2.0000      -0.529188       -14.3999
 230   2.0000      -0.526331       -14.3222
 231   2.0000      -0.524743       -14.2790
 232   2.0000      -0.523422       -14.2430
 233   2.0000      -0.520862       -14.1734
 234   2.0000      -0.516499       -14.0547
 235   2.0000      -0.510684       -13.8964
 236   2.0000      -0.509859       -13.8740
 237   2.0000      -0.504738       -13.7346
 238   2.0000      -0.503038       -13.6884
 239   2.0000      -0.500723       -13.6254
 240   2.0000      -0.500413       -13.6169
 241   2.0000      -0.495949       -13.4955
 242   2.0000      -0.494787       -13.4638
 243   2.0000      -0.493457       -13.4276
 244   2.0000      -0.491995       -13.3879
 245   2.0000      -0.487246       -13.2586
 246   2.0000      -0.486252       -13.2316
 247   2.0000      -0.485118       -13.2007
 248   2.0000      -0.484364       -13.1802
 249   2.0000      -0.483969       -13.1695
 250   2.0000      -0.481283       -13.0964
 251   2.0000      -0.480057       -13.0630
 252   2.0000      -0.477689       -12.9986
 253   2.0000      -0.474617       -12.9150
 254   2.0000      -0.471912       -12.8414
 255   2.0000      -0.469758       -12.7828
 256   2.0000      -0.468390       -12.7455
 257   2.0000      -0.466594       -12.6967
 258   2.0000      -0.464457       -12.6385
 259   2.0000      -0.463102       -12.6017
 260   2.0000      -0.462669       -12.5899
 261   2.0000      -0.462387       -12.5822
 262   2.0000      -0.459327       -12.4989
 263   2.0000      -0.457781       -12.4569
 264   2.0000      -0.454638       -12.3713
 265   2.0000      -0.454249       -12.3607
 266   2.0000      -0.450068       -12.2470
 267   2.0000      -0.448527       -12.2051
 268   2.0000      -0.446865       -12.1598
 269   2.0000      -0.445130       -12.1126
 270   2.0000      -0.440670       -11.9912
 271   2.0000      -0.438964       -11.9448
 272   2.0000      -0.437879       -11.9153
 273   2.0000      -0.433447       -11.7947
 274   2.0000      -0.431518       -11.7422
 275   2.0000      -0.427670       -11.6375
 276   2.0000      -0.420846       -11.4518
 277   2.0000      -0.420832       -11.4514
 278   2.0000      -0.413480       -11.2514
 279   2.0000      -0.405537       -11.0352
 280   2.0000      -0.401769       -10.9327
 281   2.0000      -0.401537       -10.9264
 282   2.0000      -0.388877       -10.5819
 283   2.0000      -0.381885       -10.3916
 284   2.0000      -0.380664       -10.3584
 285   2.0000      -0.378532       -10.3004
 286   2.0000      -0.371743       -10.1156
 287   2.0000      -0.352038        -9.5794
 288   2.0000      -0.350820        -9.5463
 289   2.0000      -0.347114        -9.4455
 290   2.0000      -0.344400        -9.3716
 291   2.0000      -0.338833        -9.2201
 292   2.0000      -0.321670        -8.7531
 293   2.0000      -0.317631        -8.6432
 294   2.0000      -0.297754        -8.1023
 295   2.0000      -0.290681        -7.9098
 296   2.0000      -0.283663        -7.7189
 297   0.0000      -0.083395        -2.2693
 298   0.0000      -0.069955        -1.9036
 299   0.0000      -0.057766        -1.5719
 300   0.0000      -0.051063        -1.3895
 301   0.0000      -0.026364        -0.7174

MULLIKEN ATOMIC CHARGES
-----------------------
   0 C :    0.244954
   1 O :   -0.233308
   2 C :   -0.057553
   3 C :   -0.010320
   4 C :    0.042408
   5 C :    0.032528
   6 C :    0.001397
   7 C :    0.010033
   8 C :    0.295291
   9 C :   -0.378119
  10 C :   -0.121209
  11 N :    0.100174
  12 C :   -0.131355
  13 N :    0.112024
  14 C :   -0.147284
  15 C :    0.016501
  16 C :   -0.139221
  17 Se:    0.309700
  18 C :   -0.097009
  19 C :   -0.112273
  20 C :   -0.080436
  21 C :   -0.008934
  22 C :   -0.008311
  23 S :    0.199907
  24 C :   -0.052093
  25 C :    0.067318
  26 N :   -0.249802
  27 C :    0.043484
  28 C :   -0.043502
  29 C :    0.095296
  30 C :   -0.093968
  31 C :    0.027669
  32 N :   -0.293094
  33 S :    0.501672
  34 N :   -0.278530
  35 C :    0.044485
  36 C :   -0.034094
  37 C :    0.110605
  38 N :   -0.258614
  39 C :    0.045022
  40 C :   -0.037152
  41 C :    0.287157
  42 C :   -0.468631
  43 S :    0.104528
  44 C :   -0.148970
  45 C :   -0.156580
  46 Se:    0.217853
  47 C :   -0.259205
  48 C :    0.131646
  49 C :    0.058138
  50 C :   -0.028411
  51 C :    0.118069
  52 C :   -0.135445
  53 C :    0.270081
  54 C :   -0.359673
  55 C :   -0.129620
  56 N :    0.113689
  57 C :   -0.132836
  58 N :    0.122889
  59 C :    0.002121
  60 C :   -0.000260
  61 C :    0.025564
  62 C :    0.033433
  63 C :   -0.015258
  64 C :   -0.000043
  65 C :    0.214689
  66 O :   -0.264494
  67 Cl:   -0.050461
  68 Cl:   -0.044442
  69 Cl:   -0.035002
  70 Cl:   -0.042075
  71 H :    0.028062
  72 H :    0.029632
  73 H :   -0.004132
  74 H :    0.061775
  75 H :    0.043896
  76 H :    0.034115
  77 H :    0.058745
  78 H :    0.035520
  79 H :    0.058262
  80 H :    0.064244
  81 H :    0.046638
  82 H :    0.057621
  83 H :    0.050249
  84 H :    0.064528
  85 H :    0.047746
  86 H :    0.072349
  87 H :    0.044317
  88 H :    0.046862
  89 H :    0.042268
  90 H :    0.052752
  91 H :    0.034557
  92 H :    0.042557
  93 H :    0.042221
  94 H :    0.033898
  95 H :    0.026071
  96 H :    0.022505
Sum of atomic charges:   -0.0000000

LOEWDIN ATOMIC CHARGES
----------------------
   0 C :    0.101125
   1 O :   -0.168205
   2 C :   -0.047408
   3 C :    0.001423
   4 C :   -0.134862
   5 C :   -0.129673
   6 C :   -0.009147
   7 C :   -0.015199
   8 C :    0.081176
   9 C :   -0.148105
  10 C :   -0.012549
  11 N :   -0.055208
  12 C :   -0.015832
  13 N :   -0.049939
  14 C :   -0.133137
  15 C :    0.074139
  16 C :   -0.180071
  17 Se:    0.426547
  18 C :   -0.177111
  19 C :   -0.192610
  20 C :   -0.000738
  21 C :   -0.035348
  22 C :   -0.043464
  23 S :    0.423925
  24 C :   -0.169655
  25 C :   -0.035162
  26 N :    0.035427
  27 C :    0.038618
  28 C :   -0.063566
  29 C :    0.007795
  30 C :   -0.065996
  31 C :   -0.054222
  32 N :   -0.286326
  33 S :    0.623613
  34 N :   -0.276193
  35 C :   -0.057287
  36 C :   -0.098100
  37 C :    0.040565
  38 N :    0.025586
  39 C :    0.040003
  40 C :   -0.060440
  41 C :    0.050952
  42 C :   -0.197278
  43 S :    0.270193
  44 C :   -0.104949
  45 C :   -0.234298
  46 Se:    0.248576
  47 C :   -0.173888
  48 C :    0.036947
  49 C :   -0.028222
  50 C :   -0.062637
  51 C :   -0.003648
  52 C :   -0.124012
  53 C :    0.080698
  54 C :   -0.130645
  55 C :   -0.014457
  56 N :   -0.046799
  57 C :   -0.013895
  58 N :   -0.044411
  59 C :   -0.012815
  60 C :   -0.006837
  61 C :   -0.138698
  62 C :   -0.138284
  63 C :   -0.012243
  64 C :   -0.032531
  65 C :    0.120782
  66 O :   -0.031967
  67 Cl:    0.149818
  68 Cl:    0.154766
  69 Cl:    0.159777
  70 Cl:    0.154313
  71 H :    0.049286
  72 H :    0.047742
  73 H :    0.047218
  74 H :    0.039135
  75 H :    0.032845
  76 H :    0.026037
  77 H :    0.036997
  78 H :    0.027721
  79 H :    0.032685
  80 H :    0.036164
  81 H :    0.027517
  82 H :    0.040194
  83 H :    0.022343
  84 H :    0.032391
  85 H :    0.028006
  86 H :    0.034993
  87 H :    0.033628
  88 H :    0.032674
  89 H :    0.033825
  90 H :    0.037589
  91 H :    0.022978
  92 H :    0.033181
  93 H :    0.028213
  94 H :    0.043279
  95 H :    0.047378
  96 H :    0.047280

  Mayer bond orders larger than 0.100000
B(  0-C ,  1-O ) :   2.0503 B(  0-C ,  2-C ) :   0.9729 B(  0-C , 14-C ) :   1.0075
B(  1-O , 17-Se) :   0.1299 B(  2-C ,  3-C ) :   1.3721 B(  2-C ,  7-C ) :   1.3322
B(  3-C ,  4-C ) :   1.3491 B(  3-C , 71-H ) :   1.0128 B(  4-C ,  5-C ) :   1.4111
B(  4-C , 68-Cl) :   1.0528 B(  5-C ,  6-C ) :   1.3649 B(  5-C , 69-Cl) :   1.0830
B(  6-C ,  7-C ) :   1.3753 B(  6-C , 72-H ) :   0.9842 B(  7-C ,  8-C ) :   0.9992
B(  8-C ,  9-C ) :   1.6338 B(  8-C , 14-C ) :   1.1006 B(  9-C , 10-C ) :   1.1418
B(  9-C , 12-C ) :   1.1305 B( 10-C , 11-N ) :   2.9533 B( 12-C , 13-N ) :   2.9688
B( 14-C , 15-C ) :   1.5021 B( 15-C , 16-C ) :   1.3141 B( 15-C , 73-H ) :   0.9283
B( 16-C , 17-Se) :   1.0269 B( 16-C , 20-C ) :   1.3977 B( 17-Se, 18-C ) :   1.0083
B( 18-C , 19-C ) :   1.4124 B( 18-C , 25-C ) :   1.2977 B( 19-C , 20-C ) :   1.4329
B( 19-C , 23-S ) :   1.0277 B( 20-C , 21-C ) :   1.0509 B( 21-C , 22-C ) :   1.0888
B( 21-C , 74-H ) :   0.9140 B( 21-C , 75-H ) :   0.9306 B( 22-C , 76-H ) :   0.9721
B( 22-C , 77-H ) :   0.9704 B( 22-C , 78-H ) :   0.9690 B( 23-S , 24-C ) :   1.0320
B( 24-C , 25-C ) :   1.4113 B( 24-C , 30-C ) :   1.3734 B( 25-C , 26-N ) :   1.1384
B( 26-N , 27-C ) :   0.9181 B( 26-N , 29-C ) :   1.1664 B( 27-C , 28-C ) :   1.0883
B( 27-C , 79-H ) :   0.9516 B( 27-C , 80-H ) :   0.9506 B( 28-C , 81-H ) :   0.9636
B( 28-C , 82-H ) :   0.9665 B( 28-C , 83-H ) :   0.9570 B( 29-C , 30-C ) :   1.3680
B( 29-C , 37-C ) :   1.1562 B( 30-C , 31-C ) :   1.1502 B( 31-C , 32-N ) :   1.6022
B( 31-C , 35-C ) :   1.1451 B( 32-N , 33-S ) :   1.2421 B( 32-N , 34-N ) :   0.1365
B( 33-S , 34-N ) :   1.2511 B( 34-N , 35-C ) :   1.5804 B( 35-C , 36-C ) :   1.1829
B( 36-C , 37-C ) :   1.5202 B( 36-C , 42-C ) :   1.0850 B( 37-C , 38-N ) :   1.0699
B( 38-N , 39-C ) :   0.9027 B( 38-N , 41-C ) :   1.2112 B( 39-C , 40-C ) :   1.1099
B( 39-C , 84-H ) :   0.9470 B( 39-C , 85-H ) :   0.9450 B( 40-C , 86-H ) :   0.9520
B( 40-C , 87-H ) :   0.9634 B( 40-C , 88-H ) :   0.9636 B( 41-C , 42-C ) :   0.8525
B( 41-C , 44-C ) :   0.1567 B( 41-C , 45-C ) :   1.4633 B( 42-C , 43-S ) :   0.9894
B( 42-C , 46-Se) :   0.8525 B( 43-S , 44-C ) :   0.9807 B( 44-C , 45-C ) :   1.6847
B( 44-C , 48-C ) :   0.9120 B( 46-Se, 47-C ) :   1.0351 B( 47-C , 48-C ) :   0.9148
B( 47-C , 51-C ) :   1.7528 B( 48-C , 49-C ) :   1.0771 B( 48-C , 66-O ) :   0.8577
B( 49-C , 50-C ) :   1.0871 B( 49-C , 89-H ) :   0.9315 B( 49-C , 90-H ) :   0.9178
B( 50-C , 91-H ) :   0.9628 B( 50-C , 92-H ) :   0.9679 B( 50-C , 93-H ) :   0.9676
B( 51-C , 52-C ) :   1.0862 B( 51-C , 94-H ) :   0.9692 B( 52-C , 53-C ) :   1.0992
B( 52-C , 65-C ) :   1.4657 B( 53-C , 54-C ) :   1.6649 B( 53-C , 59-C ) :   0.9807
B( 54-C , 55-C ) :   1.1291 B( 54-C , 57-C ) :   1.1338 B( 55-C , 56-N ) :   2.9724
B( 57-C , 58-N ) :   2.9823 B( 59-C , 60-C ) :   1.4338 B( 59-C , 64-C ) :   1.3066
B( 60-C , 61-C ) :   1.3176 B( 60-C , 95-H ) :   0.9859 B( 61-C , 62-C ) :   1.4567
B( 61-C , 70-Cl) :   1.0721 B( 62-C , 63-C ) :   1.3175 B( 62-C , 67-Cl) :   1.0451
B( 63-C , 64-C ) :   1.3844 B( 63-C , 96-H ) :   1.0129 B( 64-C , 65-C ) :   1.0352
B( 65-C , 66-O ) :   1.2833

-----------------------------------------------------------------------------
         ABSORPTION SPECTRUM VIA TRANSITION ELECTRIC DIPOLE MOMENTS
-----------------------------------------------------------------------------
State   Energy  Wavelength   fosc         T2         TX        TY        TZ
        (cm-1)    (nm)                  (au**2)     (au)      (au)      (au)
-----------------------------------------------------------------------------
   0   16312.7    613.0   0.082428394   1.66351   0.82244   0.96217  -0.24765
   1   18167.7    550.4   0.180147142   3.26440   1.49198   0.29176  -0.97635
   2   20160.5    496.0   0.208578129   3.40598   0.42223  -0.50588  -1.72389
   3   21837.3    457.9   1.183597552  17.84352  -2.36011  -0.75016   3.42208
   4   22704.5    440.4   1.054579374  15.29123  -2.06030  -0.61136   3.26690
   5   26830.2    372.7   0.157591081   1.93367   0.63917   1.20885  -0.25261
   6   27242.9    367.1   0.097825291   1.18215   0.74729   0.67155  -0.41560
   7   27971.6    357.5   0.030874199   0.36337   0.40410   0.42855   0.12817
   8   28542.0    350.4   0.177964738   2.05270  -0.88460  -0.05763   1.12555
   9   29387.8    340.3   0.029218448   0.32731  -0.38120  -0.25555   0.34161
  10   30650.0    326.3   0.061209295   0.65745  -0.50187  -0.14580   0.61994
  11   31327.0    319.2   0.063811983   0.67059   0.60379   0.34140  -0.43529
  12   32486.6    307.8   0.145087169   1.47028   0.02635  -0.37402  -1.15313
  13   32789.7    305.0   0.001591252   0.01598  -0.04242   0.04636  -0.10967
  14   33114.6    302.0   0.228588250   2.27253   0.19574   0.77116   1.28044
  15   33488.6    298.6   0.178067172   1.75050   0.01302  -0.81022  -1.04589
  16   33954.1    294.5   0.308573047   2.99186   1.53900   0.78939   0.01464
  17   34352.5    291.1   0.037478311   0.35917  -0.09362   0.47764   0.34966
  18   34843.0    287.0   0.020231283   0.19115   0.39098  -0.09693  -0.16999
  19   34977.5    285.9   0.135580852   1.27610  -0.63978  -0.73582  -0.57040
  20   35291.7    283.4   0.091231500   0.85103   0.68704   0.19703   0.58326
  21   35677.9    280.3   0.199576743   1.84156  -1.24404  -0.53101   0.10936
  22   35921.9    278.4   0.461044045   4.22531   1.10524   1.65159   0.52536
  23   36166.1    276.5   0.298163772   2.71411  -1.47089   0.01374   0.74190
  24   36766.0    272.0   0.107858954   0.96580   0.27204   0.84958   0.41232
  25   37367.2    267.6   0.263625413   2.32259  -0.36999   0.46067   1.40480
  26   37554.3    266.3   0.044083804   0.38645   0.30029  -0.14308  -0.52517
  27   38349.5    260.8   0.201672013   1.73126   1.05217   0.78137  -0.11688
  28   38727.2    258.2   0.038527660   0.32752  -0.09497   0.18753   0.53229
  29   38874.4    257.2   0.315379922   2.67083  -0.30910  -0.99958  -1.25544
  30   39316.6    254.3   0.026881435   0.22509  -0.37331  -0.26457  -0.12543
  31   39441.8    253.5   0.752532584   6.28123   1.11176   1.23304   1.87745
  32   39861.9    250.9   0.128878625   1.06438  -0.22536   0.07940   1.00364

Dispersion correction           -0.069111859
FINAL SINGLE POINT ENERGY    -10419.840401772306

DIPOLE MOMENT
-------------
                                X             Y             Z
Electronic contribution:     -9.52982      11.33350     -12.69888
Nuclear contribution   :      9.76950     -14.01726      10.15308
                        -----------------------------------------
Total Dipole Moment    :      0.23968      -2.68376      -2.54580
                        -----------------------------------------
Magnitude (a.u.)       :      3.70690
Magnitude (Debye)      :      9.42219

Rotational constants in cm-1:     0.001940     0.000215     0.000201
Rotational constants in MHz :    58.149541     6.434029     6.040168

                             ****ORCA TERMINATED NORMALLY****
TOTAL RUN TIME: 0 days 0 hours 12 minutes 26 seconds 646 msec
