                         Program Version 4.2.0 -  RELEASE  -
|  1> # ORCA input file
|  2> # SCF done       -145.257422313669          0.000427119064
|  3> ! wb97x-d3 def2-SVP def2/J RIJCOSX Grid4 TightSCF
|  4> %maxcore 5000
|  5> %tddft
|  6>     Mode sTDA
|  7>     Ethresh 5.0
|  8>     maxcore 5000
|  9> end
| 10>
| 11> %pal
| 12>   nprocs 6
| 13>   end
| 14> * xyz 0 1
| 15>    C       -0.56154        -0.90240         0.48745
| 16>    C        5.70326         3.59730         0.16289
| 17>    C        5.85962         5.00851         0.26803
| 18>    C        7.16281         5.60784         0.15865
| 19>    C        8.33021         4.82462        -0.06226
| 20>    C        8.12789         3.45026        -0.15184
| 21>    C        6.87299         2.86892        -0.04199
| 22>    N        4.91257         5.92337         0.46885
| 23>    S        5.59200         7.38186         0.51550
| 24>    N        7.11511         6.93108         0.28338
| 25>    C       -1.48870        -1.98561         0.51164
| 26>    C       -2.89169        -1.77414         0.63006
| 27>    C       -3.79677        -2.89160         0.66418
| 28>    C       -3.33101        -4.23410         0.58892
| 29>    C       -1.95340        -4.38998         0.46397
| 30>    C       -1.07825        -3.31404         0.42535
| 31>    N       -3.53925        -0.61343         0.71684
| 32>    S       -5.11944        -0.90033         0.82843
| 33>    N       -5.06409        -2.50355         0.77429
| 34>    C       -0.82919         0.45345         0.60627
| 35>    C        0.31877         1.22804         0.54960
| 36>    C        1.47888         0.46678         0.38225
| 37>    S        1.15897        -1.21317         0.29877
| 38>    C        0.65178         2.69799         0.62238
| 39>    C        2.15233         2.65073         0.46944
| 40>    C        2.59289         1.33151         0.33123
| 41>    C        3.18845         3.57059         0.42946
| 42>    C        4.42656         2.96904         0.25797
| 43>    S        4.29138         1.21923         0.14763
| 44>    C        0.23953         3.30672         1.97563
| 45>    C       -0.01063         3.48660        -0.52248
| 46>    C        0.83703         2.57195         3.16929
| 47>    C        0.34530         2.94916        -1.90312
| 48>    C       -4.29009        -5.28609         0.65182
| 49>    C       -4.11334        -6.62913         0.64202
| 50>    C       -5.26086        -7.53899         0.73504
| 51>    N       -4.83414        -8.85798         0.72512
| 52>    C       -3.50188        -9.08011         0.62734
| 53>    S       -2.63078        -7.55035         0.54209
| 54>    S       -2.77306       -10.53838         0.60321
| 55>    C       -5.79487        -9.94262         0.78707
| 56>    C       -6.11954       -10.47203        -0.60386
| 57>    O       -6.42329        -7.21625         0.82171
| 58>    C        9.58272         5.49464        -0.17593
| 59>    C       10.81782         4.99717        -0.42567
| 60>    C       11.98192         5.88568        -0.51920
| 61>    N       13.12490         5.15644        -0.80870
| 62>    C       12.99044         3.81541        -0.94025
| 63>    S       11.31030         3.34183        -0.69781
| 64>    S       14.18626         2.76174        -1.28413
| 65>    C       14.40887         5.81893        -0.93446
| 66>    C       15.19946         5.74461         0.36542
| 67>    O       11.97670         7.08710        -0.37989
| 68>    H        8.97460         2.80207        -0.31193
| 69>    H        6.79671         1.79426        -0.12340
| 70>    H       -1.53947        -5.38320         0.39378
| 71>    H       -0.02120        -3.51569         0.32872
| 72>    H       -1.83118         0.82066         0.72826
| 73>    H        3.08804         4.63652         0.51601
| 74>    H        0.56027         4.35007         1.99403
| 75>    H       -0.84977         3.28507         2.04469
| 76>    H       -1.09295         3.44598        -0.38565
| 77>    H        0.30232         4.52976        -0.44718
| 78>    H        1.92374         2.58737         3.12817
| 79>    H        0.52282         3.04931         4.09417
| 80>    H        0.50743         1.53570         3.18989
| 81>    H        0.02764         1.91429        -2.00827
| 82>    H       -0.15052         3.53894        -2.67016
| 83>    H        1.41844         2.99950        -2.07267
| 84>    H       -5.32275        -4.96335         0.72953
| 85>    H       -5.37131       -10.73543         1.40832
| 86>    H       -6.69118        -9.53296         1.25875
| 87>    H       -5.22414       -10.86896        -1.07641
| 88>    H       -6.85420       -11.26789        -0.52617
| 89>    H       -6.52775        -9.67734        -1.22399
| 90>    H        9.54179         6.57160        -0.05322
| 91>    H       14.96074         5.33654        -1.74481
| 92>    H       14.19435         6.85872        -1.19209
| 93>    H       15.40075         4.70855         0.62724
| 94>    H       16.14583         6.26312         0.24399
| 95>    H       14.64293         6.21490         1.17272
| 96> *
| 97>
| 98>                          ****END OF INPUT****

CARTESIAN COORDINATES (ANGSTROEM)
---------------------------------
  C     -0.561540   -0.902400    0.487450
  C      5.703260    3.597300    0.162890
  C      5.859620    5.008510    0.268030
  C      7.162810    5.607840    0.158650
  C      8.330210    4.824620   -0.062260
  C      8.127890    3.450260   -0.151840
  C      6.872990    2.868920   -0.041990
  N      4.912570    5.923370    0.468850
  S      5.592000    7.381860    0.515500
  N      7.115110    6.931080    0.283380
  C     -1.488700   -1.985610    0.511640
  C     -2.891690   -1.774140    0.630060
  C     -3.796770   -2.891600    0.664180
  C     -3.331010   -4.234100    0.588920
  C     -1.953400   -4.389980    0.463970
  C     -1.078250   -3.314040    0.425350
  N     -3.539250   -0.613430    0.716840
  S     -5.119440   -0.900330    0.828430
  N     -5.064090   -2.503550    0.774290
  C     -0.829190    0.453450    0.606270
  C      0.318770    1.228040    0.549600
  C      1.478880    0.466780    0.382250
  S      1.158970   -1.213170    0.298770
  C      0.651780    2.697990    0.622380
  C      2.152330    2.650730    0.469440
  C      2.592890    1.331510    0.331230
  C      3.188450    3.570590    0.429460
  C      4.426560    2.969040    0.257970
  S      4.291380    1.219230    0.147630
  C      0.239530    3.306720    1.975630
  C     -0.010630    3.486600   -0.522480
  C      0.837030    2.571950    3.169290
  C      0.345300    2.949160   -1.903120
  C     -4.290090   -5.286090    0.651820
  C     -4.113340   -6.629130    0.642020
  C     -5.260860   -7.538990    0.735040
  N     -4.834140   -8.857980    0.725120
  C     -3.501880   -9.080110    0.627340
  S     -2.630780   -7.550350    0.542090
  S     -2.773060  -10.538380    0.603210
  C     -5.794870   -9.942620    0.787070
  C     -6.119540  -10.472030   -0.603860
  O     -6.423290   -7.216250    0.821710
  C      9.582720    5.494640   -0.175930
  C     10.817820    4.997170   -0.425670
  C     11.981920    5.885680   -0.519200
  N     13.124900    5.156440   -0.808700
  C     12.990440    3.815410   -0.940250
  S     11.310300    3.341830   -0.697810
  S     14.186260    2.761740   -1.284130
  C     14.408870    5.818930   -0.934460
  C     15.199460    5.744610    0.365420
  O     11.976700    7.087100   -0.379890
  H      8.974600    2.802070   -0.311930
  H      6.796710    1.794260   -0.123400
  H     -1.539470   -5.383200    0.393780
  H     -0.021200   -3.515690    0.328720
  H     -1.831180    0.820660    0.728260
  H      3.088040    4.636520    0.516010
  H      0.560270    4.350070    1.994030
  H     -0.849770    3.285070    2.044690
  H     -1.092950    3.445980   -0.385650
  H      0.302320    4.529760   -0.447180
  H      1.923740    2.587370    3.128170
  H      0.522820    3.049310    4.094170
  H      0.507430    1.535700    3.189890
  H      0.027640    1.914290   -2.008270
  H     -0.150520    3.538940   -2.670160
  H      1.418440    2.999500   -2.072670
  H     -5.322750   -4.963350    0.729530
  H     -5.371310  -10.735430    1.408320
  H     -6.691180   -9.532960    1.258750
  H     -5.224140  -10.868960   -1.076410
  H     -6.854200  -11.267890   -0.526170
  H     -6.527750   -9.677340   -1.223990
  H      9.541790    6.571600   -0.053220
  H     14.960740    5.336540   -1.744810
  H     14.194350    6.858720   -1.192090
  H     15.400750    4.708550    0.627240
  H     16.145830    6.263120    0.243990
  H     14.642930    6.214900    1.172720

 Total Charge           Charge          ....    0
 Multiplicity           Mult            ....    1
 Number of Electrons    NEL             ....  436
 Basis Dimension        Dim             ....  914

ORBITAL ENERGIES
----------------

  NO   OCC          E(Eh)            E(eV)
   0   2.0000     -89.053735     -2423.2753
   1   2.0000     -89.053733     -2423.2753
   2   2.0000     -88.992594     -2421.6116
   3   2.0000     -88.992493     -2421.6088
   4   2.0000     -88.988404     -2421.4976
   5   2.0000     -88.988329     -2421.4955
   6   2.0000     -88.910393     -2419.3748
   7   2.0000     -88.910368     -2419.3741
   8   2.0000     -19.243213      -523.6344
   9   2.0000     -19.243091      -523.6311
  10   2.0000     -14.510772      -394.8582
  11   2.0000     -14.510656      -394.8550
  12   2.0000     -14.484502      -394.1433
  13   2.0000     -14.484440      -394.1417
  14   2.0000     -14.482060      -394.0769
  15   2.0000     -14.481948      -394.0738
  16   2.0000     -10.427003      -283.7332
  17   2.0000     -10.426911      -283.7307
  18   2.0000     -10.420667      -283.5608
  19   2.0000     -10.420594      -283.5588
  20   2.0000     -10.365690      -282.0648
  21   2.0000     -10.365678      -282.0644
  22   2.0000     -10.363841      -282.0144
  23   2.0000     -10.363737      -282.0116
  24   2.0000     -10.350502      -281.6515
  25   2.0000     -10.350402      -281.6488
  26   2.0000     -10.348630      -281.6006
  27   2.0000     -10.348576      -281.5991
  28   2.0000     -10.345651      -281.5195
  29   2.0000     -10.345623      -281.5187
  30   2.0000     -10.345202      -281.5073
  31   2.0000     -10.344882      -281.4985
  32   2.0000     -10.337929      -281.3094
  33   2.0000     -10.337882      -281.3081
  34   2.0000     -10.335328      -281.2386
  35   2.0000     -10.335312      -281.2381
  36   2.0000     -10.334986      -281.2293
  37   2.0000     -10.334961      -281.2286
  38   2.0000     -10.333665      -281.1933
  39   2.0000     -10.333576      -281.1909
  40   2.0000     -10.327575      -281.0276
  41   2.0000     -10.327572      -281.0275
  42   2.0000     -10.326440      -280.9967
  43   2.0000     -10.313354      -280.6406
  44   2.0000     -10.313261      -280.6381
  45   2.0000     -10.311463      -280.5892
  46   2.0000     -10.311432      -280.5883
  47   2.0000     -10.303016      -280.3593
  48   2.0000     -10.302937      -280.3572
  49   2.0000     -10.288326      -279.9596
  50   2.0000     -10.288122      -279.9540
  51   2.0000     -10.282767      -279.8083
  52   2.0000     -10.282733      -279.8074
  53   2.0000      -8.164437      -222.1656
  54   2.0000      -8.164425      -222.1653
  55   2.0000      -8.105824      -220.5707
  56   2.0000      -8.105773      -220.5693
  57   2.0000      -8.103267      -220.5011
  58   2.0000      -8.103195      -220.4991
  59   2.0000      -8.026371      -218.4087
  60   2.0000      -8.026318      -218.4072
  61   2.0000      -6.125944      -166.6954
  62   2.0000      -6.125940      -166.6953
  63   2.0000      -6.117930      -166.4773
  64   2.0000      -6.117926      -166.4772
  65   2.0000      -6.116942      -166.4505
  66   2.0000      -6.116910      -166.4496
  67   2.0000      -6.065330      -165.0460
  68   2.0000      -6.065303      -165.0453
  69   2.0000      -6.063336      -164.9918
  70   2.0000      -6.063266      -164.9899
  71   2.0000      -6.061256      -164.9352
  72   2.0000      -6.061247      -164.9349
  73   2.0000      -6.059201      -164.8792
  74   2.0000      -6.059129      -164.8773
  75   2.0000      -6.058119      -164.8498
  76   2.0000      -6.058085      -164.8489
  77   2.0000      -6.053957      -164.7366
  78   2.0000      -6.053884      -164.7345
  79   2.0000      -5.986425      -162.8989
  80   2.0000      -5.986366      -162.8973
  81   2.0000      -5.982973      -162.8050
  82   2.0000      -5.982925      -162.8037
  83   2.0000      -5.976545      -162.6300
  84   2.0000      -5.976532      -162.6297
  85   2.0000      -1.190254       -32.3885
  86   2.0000      -1.190161       -32.3859
  87   2.0000      -1.169849       -31.8332
  88   2.0000      -1.169761       -31.8308
  89   2.0000      -1.117168       -30.3997
  90   2.0000      -1.117045       -30.3964
  91   2.0000      -1.056416       -28.7465
  92   2.0000      -1.031092       -28.0574
  93   2.0000      -1.026276       -27.9264
  94   2.0000      -1.022366       -27.8200
  95   2.0000      -1.014482       -27.6055
  96   2.0000      -1.002293       -27.2738
  97   2.0000      -0.984628       -26.7931
  98   2.0000      -0.981843       -26.7173
  99   2.0000      -0.966856       -26.3095
 100   2.0000      -0.935321       -25.4514
 101   2.0000      -0.933185       -25.3933
 102   2.0000      -0.916844       -24.9486
 103   2.0000      -0.909552       -24.7502
 104   2.0000      -0.906267       -24.6608
 105   2.0000      -0.906064       -24.6553
 106   2.0000      -0.897160       -24.4130
 107   2.0000      -0.883425       -24.0392
 108   2.0000      -0.878410       -23.9027
 109   2.0000      -0.877018       -23.8649
 110   2.0000      -0.872222       -23.7344
 111   2.0000      -0.869651       -23.6644
 112   2.0000      -0.859446       -23.3867
 113   2.0000      -0.849400       -23.1134
 114   2.0000      -0.816960       -22.2306
 115   2.0000      -0.800658       -21.7870
 116   2.0000      -0.797891       -21.7117
 117   2.0000      -0.780097       -21.2275
 118   2.0000      -0.778230       -21.1767
 119   2.0000      -0.777984       -21.1700
 120   2.0000      -0.763587       -20.7783
 121   2.0000      -0.761237       -20.7143
 122   2.0000      -0.754331       -20.5264
 123   2.0000      -0.752620       -20.4798
 124   2.0000      -0.752564       -20.4783
 125   2.0000      -0.732472       -19.9316
 126   2.0000      -0.726179       -19.7603
 127   2.0000      -0.714645       -19.4465
 128   2.0000      -0.713454       -19.4141
 129   2.0000      -0.686693       -18.6859
 130   2.0000      -0.679611       -18.4932
 131   2.0000      -0.677607       -18.4386
 132   2.0000      -0.664361       -18.0782
 133   2.0000      -0.661693       -18.0056
 134   2.0000      -0.653303       -17.7773
 135   2.0000      -0.653281       -17.7767
 136   2.0000      -0.638428       -17.3725
 137   2.0000      -0.634537       -17.2666
 138   2.0000      -0.629417       -17.1273
 139   2.0000      -0.622423       -16.9370
 140   2.0000      -0.614812       -16.7299
 141   2.0000      -0.614320       -16.7165
 142   2.0000      -0.604384       -16.4461
 143   2.0000      -0.599186       -16.3047
 144   2.0000      -0.593692       -16.1552
 145   2.0000      -0.593539       -16.1510
 146   2.0000      -0.591393       -16.0926
 147   2.0000      -0.589273       -16.0349
 148   2.0000      -0.586564       -15.9612
 149   2.0000      -0.585708       -15.9379
 150   2.0000      -0.582709       -15.8563
 151   2.0000      -0.567080       -15.4310
 152   2.0000      -0.565134       -15.3781
 153   2.0000      -0.563580       -15.3358
 154   2.0000      -0.561408       -15.2767
 155   2.0000      -0.555819       -15.1246
 156   2.0000      -0.553230       -15.0542
 157   2.0000      -0.551279       -15.0011
 158   2.0000      -0.537473       -14.6254
 159   2.0000      -0.536757       -14.6059
 160   2.0000      -0.532789       -14.4979
 161   2.0000      -0.531251       -14.4561
 162   2.0000      -0.524442       -14.2708
 163   2.0000      -0.520932       -14.1753
 164   2.0000      -0.516040       -14.0422
 165   2.0000      -0.513234       -13.9658
 166   2.0000      -0.511900       -13.9295
 167   2.0000      -0.507805       -13.8181
 168   2.0000      -0.507421       -13.8076
 169   2.0000      -0.505398       -13.7526
 170   2.0000      -0.502076       -13.6622
 171   2.0000      -0.501718       -13.6524
 172   2.0000      -0.500486       -13.6189
 173   2.0000      -0.496809       -13.5189
 174   2.0000      -0.495373       -13.4798
 175   2.0000      -0.491658       -13.3787
 176   2.0000      -0.488389       -13.2897
 177   2.0000      -0.487241       -13.2585
 178   2.0000      -0.483181       -13.1480
 179   2.0000      -0.481532       -13.1031
 180   2.0000      -0.480913       -13.0863
 181   2.0000      -0.479426       -13.0458
 182   2.0000      -0.478510       -13.0209
 183   2.0000      -0.472308       -12.8521
 184   2.0000      -0.472008       -12.8440
 185   2.0000      -0.469302       -12.7704
 186   2.0000      -0.464928       -12.6513
 187   2.0000      -0.460761       -12.5379
 188   2.0000      -0.458295       -12.4708
 189   2.0000      -0.455993       -12.4082
 190   2.0000      -0.452690       -12.3183
 191   2.0000      -0.452532       -12.3140
 192   2.0000      -0.442350       -12.0370
 193   2.0000      -0.436552       -11.8792
 194   2.0000      -0.435536       -11.8515
 195   2.0000      -0.431343       -11.7375
 196   2.0000      -0.428405       -11.6575
 197   2.0000      -0.428274       -11.6539
 198   2.0000      -0.427658       -11.6372
 199   2.0000      -0.425378       -11.5751
 200   2.0000      -0.407118       -11.0782
 201   2.0000      -0.407018       -11.0755
 202   2.0000      -0.401192       -10.9170
 203   2.0000      -0.389106       -10.5881
 204   2.0000      -0.388991       -10.5850
 205   2.0000      -0.377445       -10.2708
 206   2.0000      -0.375033       -10.2052
 207   2.0000      -0.374021       -10.1776
 208   2.0000      -0.364471        -9.9178
 209   2.0000      -0.362213        -9.8563
 210   2.0000      -0.355126        -9.6635
 211   2.0000      -0.351928        -9.5765
 212   2.0000      -0.341111        -9.2821
 213   2.0000      -0.323640        -8.8067
 214   2.0000      -0.323346        -8.7987
 215   2.0000      -0.322072        -8.7640
 216   2.0000      -0.299651        -8.1539
 217   2.0000      -0.261876        -7.1260
 218   0.0000      -0.076883        -2.0921
 219   0.0000      -0.058632        -1.5955
 220   0.0000      -0.011310        -0.3078
 221   0.0000      -0.010702        -0.2912
 222   0.0000       0.000571         0.0155

MULLIKEN ATOMIC CHARGES
-----------------------
   0 C :   -0.130124
   1 C :    0.111722
   2 C :    0.031608
   3 C :    0.040448
   4 C :    0.016311
   5 C :   -0.029755
   6 C :   -0.074694
   7 N :   -0.324997
   8 S :    0.531018
   9 N :   -0.306050
  10 C :    0.112347
  11 C :    0.030390
  12 C :    0.037964
  13 C :    0.015307
  14 C :   -0.027634
  15 C :   -0.071722
  16 N :   -0.323396
  17 S :    0.531339
  18 N :   -0.305667
  19 C :   -0.031829
  20 C :   -0.002368
  21 C :   -0.058514
  22 S :    0.133442
  23 C :   -0.197509
  24 C :   -0.002961
  25 C :   -0.057261
  26 C :   -0.029674
  27 C :   -0.129548
  28 S :    0.133505
  29 C :    0.029973
  30 C :    0.029959
  31 C :   -0.018486
  32 C :   -0.018874
  33 C :    0.002371
  34 C :   -0.179827
  35 C :    0.285861
  36 N :   -0.275088
  37 C :    0.036467
  38 S :    0.099047
  39 S :   -0.169321
  40 C :    0.078316
  41 C :   -0.050929
  42 O :   -0.205156
  43 C :    0.001793
  44 C :   -0.178137
  45 C :    0.285987
  46 N :   -0.278377
  47 C :    0.037341
  48 S :    0.099304
  49 S :   -0.169658
  50 C :    0.079163
  51 C :   -0.047448
  52 O :   -0.206092
  53 H :    0.023204
  54 H :    0.023315
  55 H :    0.021782
  56 H :    0.023490
  57 H :    0.020408
  58 H :    0.020669
  59 H :    0.027807
  60 H :    0.027774
  61 H :    0.027896
  62 H :    0.027764
  63 H :    0.041219
  64 H :    0.033889
  65 H :    0.040084
  66 H :    0.040368
  67 H :    0.034580
  68 H :    0.040801
  69 H :    0.059073
  70 H :    0.057100
  71 H :    0.064387
  72 H :    0.046012
  73 H :    0.048182
  74 H :    0.043685
  75 H :    0.059560
  76 H :    0.057155
  77 H :    0.064428
  78 H :    0.046317
  79 H :    0.045750
  80 H :    0.043414
Sum of atomic charges:   -0.0000000

LOEWDIN ATOMIC CHARGES
----------------------
   0 C :   -0.168764
   1 C :   -0.023797
   2 C :   -0.041385
   3 C :   -0.035732
   4 C :   -0.058842
   5 C :    0.003999
   6 C :   -0.030771
   7 N :   -0.282301
   8 S :    0.642919
   9 N :   -0.281302
  10 C :   -0.023877
  11 C :   -0.041468
  12 C :   -0.035793
  13 C :   -0.058839
  14 C :    0.004198
  15 C :   -0.030536
  16 N :   -0.282116
  17 S :    0.642853
  18 N :   -0.281124
  19 C :   -0.033069
  20 C :   -0.039500
  21 C :   -0.187261
  22 S :    0.433744
  23 C :   -0.038372
  24 C :   -0.039866
  25 C :   -0.187243
  26 C :   -0.033039
  27 C :   -0.168720
  28 S :    0.433966
  29 C :   -0.013566
  30 C :   -0.013593
  31 C :   -0.059587
  32 C :   -0.059591
  33 C :    0.021559
  34 C :   -0.215084
  35 C :    0.078455
  36 N :   -0.026571
  37 C :   -0.234648
  38 S :    0.376369
  39 S :   -0.038900
  40 C :    0.039758
  41 C :   -0.062566
  42 O :   -0.172099
  43 C :    0.021731
  44 C :   -0.215122
  45 C :    0.078504
  46 N :   -0.026935
  47 C :   -0.234607
  48 S :    0.376456
  49 S :   -0.039124
  50 C :    0.039893
  51 C :   -0.062037
  52 O :   -0.172253
  53 H :    0.022990
  54 H :    0.029266
  55 H :    0.022890
  56 H :    0.029343
  57 H :    0.033752
  58 H :    0.033893
  59 H :    0.025110
  60 H :    0.024968
  61 H :    0.025027
  62 H :    0.025027
  63 H :    0.027603
  64 H :    0.027789
  65 H :    0.027293
  66 H :    0.027441
  67 H :    0.027964
  68 H :    0.027392
  69 H :    0.054994
  70 H :    0.027627
  71 H :    0.035826
  72 H :    0.025870
  73 H :    0.034896
  74 H :    0.029911
  75 H :    0.055033
  76 H :    0.027661
  77 H :    0.035810
  78 H :    0.025850
  79 H :    0.034499
  80 H :    0.029873

  Mayer bond orders larger than 0.100000
B(  0-C , 10-C ) :   1.1461 B(  0-C , 19-C ) :   1.4749 B(  0-C , 22-S ) :   1.0953
B(  1-C ,  2-C ) :   1.1906 B(  1-C ,  6-C ) :   1.4467 B(  1-C , 27-C ) :   1.1481
B(  2-C ,  3-C ) :   1.1574 B(  2-C ,  7-N ) :   1.5174 B(  3-C ,  4-C ) :   1.1702
B(  3-C ,  9-N ) :   1.5482 B(  4-C ,  5-C ) :   1.4257 B(  4-C , 43-C ) :   1.1249
B(  5-C ,  6-C ) :   1.3063 B(  5-C , 53-H ) :   0.9782 B(  6-C , 54-H ) :   0.9845
B(  7-N ,  8-S ) :   1.2649 B(  7-N ,  9-N ) :   0.1473 B(  8-S ,  9-N ) :   1.2718
B( 10-C , 11-C ) :   1.1914 B( 10-C , 15-C ) :   1.4492 B( 11-C , 12-C ) :   1.1571
B( 11-C , 16-N ) :   1.5179 B( 12-C , 13-C ) :   1.1714 B( 12-C , 18-N ) :   1.5486
B( 13-C , 14-C ) :   1.4261 B( 13-C , 33-C ) :   1.1221 B( 14-C , 15-C ) :   1.3015
B( 14-C , 55-H ) :   0.9801 B( 15-C , 56-H ) :   0.9850 B( 16-N , 17-S ) :   1.2652
B( 16-N , 18-N ) :   0.1474 B( 17-S , 18-N ) :   1.2720 B( 19-C , 20-C ) :   1.3018
B( 19-C , 57-H ) :   0.9960 B( 20-C , 21-C ) :   1.5092 B( 20-C , 23-C ) :   0.9211
B( 21-C , 22-S ) :   1.0986 B( 21-C , 25-C ) :   1.2034 B( 23-C , 24-C ) :   0.9212
B( 23-C , 29-C ) :   1.0387 B( 23-C , 30-C ) :   1.0383 B( 24-C , 25-C ) :   1.5080
B( 24-C , 26-C ) :   1.3035 B( 25-C , 28-S ) :   1.0994 B( 26-C , 27-C ) :   1.4745
B( 26-C , 58-H ) :   0.9952 B( 27-C , 28-S ) :   1.0946 B( 29-C , 31-C ) :   1.0861
B( 29-C , 59-H ) :   0.9486 B( 29-C , 60-H ) :   0.9482 B( 30-C , 32-C ) :   1.0867
B( 30-C , 61-H ) :   0.9481 B( 30-C , 62-H ) :   0.9486 B( 31-C , 63-H ) :   0.9685
B( 31-C , 64-H ) :   0.9703 B( 31-C , 65-H ) :   0.9678 B( 32-C , 66-H ) :   0.9684
B( 32-C , 67-H ) :   0.9698 B( 32-C , 68-H ) :   0.9682 B( 33-C , 34-C ) :   1.7349
B( 33-C , 69-H ) :   0.9621 B( 34-C , 35-C ) :   0.9574 B( 34-C , 38-S ) :   1.0132
B( 35-C , 36-N ) :   1.0417 B( 35-C , 42-O ) :   2.1318 B( 36-N , 37-C ) :   1.1515
B( 36-N , 40-C ) :   0.8988 B( 37-C , 38-S ) :   1.0383 B( 37-C , 39-S ) :   1.6939
B( 40-C , 41-C ) :   1.1024 B( 40-C , 70-H ) :   0.9434 B( 40-C , 71-H ) :   0.9423
B( 41-C , 72-H ) :   0.9681 B( 41-C , 73-H ) :   0.9741 B( 41-C , 74-H ) :   0.9706
B( 43-C , 44-C ) :   1.7325 B( 43-C , 75-H ) :   0.9622 B( 44-C , 45-C ) :   0.9582
B( 44-C , 48-S ) :   1.0136 B( 45-C , 46-N ) :   1.0403 B( 45-C , 52-O ) :   2.1301
B( 46-N , 47-C ) :   1.1522 B( 46-N , 50-C ) :   0.8971 B( 47-C , 48-S ) :   1.0391
B( 47-C , 49-S ) :   1.6936 B( 50-C , 51-C ) :   1.1034 B( 50-C , 76-H ) :   0.9434
B( 50-C , 77-H ) :   0.9421 B( 51-C , 78-H ) :   0.9678 B( 51-C , 79-H ) :   0.9742
B( 51-C , 80-H ) :   0.9706

-----------------------------------------------------------------------------
         ABSORPTION SPECTRUM VIA TRANSITION ELECTRIC DIPOLE MOMENTS
-----------------------------------------------------------------------------
State   Energy  Wavelength   fosc         T2         TX        TY        TZ
        (cm-1)    (nm)                  (au**2)     (au)      (au)      (au)
-----------------------------------------------------------------------------
   0   17081.5    585.4   2.578587618  49.69716  -5.55109  -4.32430   0.42770
   1   24398.1    409.9   0.509041916   6.86867  -1.58775   2.06367   0.29830
   2   30240.2    330.7   0.242031520   2.63490  -0.97858   1.28265   0.17909
   3   31598.5    316.5   0.001845752   0.01923  -0.07758  -0.05654  -0.10007
   4   31851.3    314.0   0.010425127   0.10775   0.23077   0.15680   0.17295
   5   32646.9    306.3   0.225376246   2.27270   1.17108   0.92742  -0.20286
   6   34834.8    287.1   0.430868407   4.07200   1.20519  -1.60283  -0.22461
   7   35139.3    284.6   0.100835588   0.94471   0.77337   0.56034  -0.18062
   8   38818.2    257.6   0.018257287   0.15484  -0.31167  -0.23169   0.06338
   9   39554.8    252.8   0.003591174   0.02989   0.12562   0.11756  -0.01695
  10   39820.4    251.1   0.065360932   0.54037  -0.59310  -0.42708   0.07878
  11   40259.3    248.4   0.459822284   3.76010  -1.18736   1.51755   0.21752

Dispersion correction           -0.047621520
FINAL SINGLE POINT ENERGY     -5088.393698819094

DIPOLE MOMENT
-------------
                                X             Y             Z
Electronic contribution:      4.46295      -5.73302      -0.98413
Nuclear contribution   :     -5.65385       7.26761       1.20835
                        -----------------------------------------
Total Dipole Moment    :     -1.19090       1.53460       0.22422
                        -----------------------------------------
Magnitude (a.u.)       :      1.95538
Magnitude (Debye)      :      4.97017

Rotational constants in cm-1:     0.002572     0.000323     0.000290
Rotational constants in MHz :    77.112008     9.688562     8.702507

                             ****ORCA TERMINATED NORMALLY****
TOTAL RUN TIME: 0 days 0 hours 6 minutes 49 seconds 179 msec
