                         Program Version 4.2.0 -  RELEASE  -
|  1> # ORCA input file
|  2> # SCF done       -182.980942257830          0.000850193149
|  3> ! wb97x-d3 def2-SVP def2/J RIJCOSX Grid4 TightSCF
|  4> %maxcore 5000
|  5> %tddft
|  6>     Mode sTDA
|  7>     Ethresh 5.0
|  8>     maxcore 5000
|  9> end
| 10>
| 11> %pal
| 12>   nprocs 6
| 13>   end
| 14> * xyz 0 1
| 15>    C       -4.02143        17.78639       -24.17966
| 16>    O       -3.65266        16.82194       -23.53163
| 17>    C       -4.39608        17.77966       -25.60745
| 18>    C       -4.40186        16.72100       -26.49133
| 19>    C       -4.78853        16.96284       -27.80380
| 20>   Cl       -4.80700        15.67320       -28.93774
| 21>    C       -5.15990        18.25106       -28.20219
| 22>   Cl       -5.63350        18.53773       -29.82801
| 23>    C       -5.15324        19.31488       -27.30528
| 24>    C       -4.76780        19.07793       -25.99660
| 25>    C       -4.65170        19.96718       -24.84027
| 26>    C       -4.94562        21.30714       -24.84664
| 27>    C       -4.84717        22.18077       -23.74389
| 28>    N       -4.79592        22.95677       -22.89771
| 29>    C       -5.39929        22.01121       -25.98231
| 30>    N       -5.76938        22.64648       -26.86386
| 31>    C       -4.17955        19.16859       -23.72718
| 32>    C       -3.90592        19.64856       -22.46651
| 33>    C       -3.42822        19.00459       -21.32376
| 34>    S       -3.04552        17.28425       -21.21907
| 35>    C       -2.55435        17.48135       -19.58045
| 36>    C       -2.68448        18.81359       -19.14624
| 37>    C       -3.17631        19.67830       -20.11293
| 38>    C       -3.44112        21.12373       -19.84736
| 39>    C       -4.91252        21.34911       -19.48743
| 40>    S       -2.15679        19.06716       -17.49194
| 41>    C       -1.75329        17.38853       -17.39959
| 42>    C       -2.03417        16.67190       -18.56778
| 43>    N       -1.68515        15.35438       -18.41409
| 44>    C       -1.44593        14.60782       -19.63284
| 45>    C       -1.15315        15.20710       -17.13852
| 46>    C       -1.16855        16.48731       -16.50242
| 47>    C       -0.57822        16.71481       -15.23997
| 48>    N       -0.48346        17.84867       -14.56273
| 49>    S        0.36575        17.56661       -13.21359
| 50>    N        0.64011        15.98920       -13.44108
| 51>    C        0.07657        15.62556       -14.58191
| 52>    C       -0.01489        14.33832       -15.15478
| 53>    C       -0.68397        14.09305       -16.38746
| 54>    N       -0.75863        12.72365       -16.56802
| 55>    C       -1.51008        11.99712       -17.56082
| 56>    C       -0.61238        11.44468       -18.67108
| 57>    C       -0.13377        12.10188       -15.50402
| 58>    C        0.36046        13.09492       -14.63520
| 59>    S        1.17312        12.48753       -13.26508
| 60>    C        0.83723        10.84750       -13.82732
| 61>    C        0.10984        10.80724       -15.04008
| 62>    C        1.97238         9.50894       -12.00133
| 63>    C        2.33637         8.21675       -11.45550
| 64>    C        2.03308         6.97578       -11.95851
| 65>    C        2.42412         5.76058       -11.35754
| 66>    N        2.70161         4.73331       -10.92649
| 67>    C        1.29880         6.71109       -13.13230
| 68>    N        0.71612         6.40068       -14.07354
| 69>    C        3.11498         8.45744       -10.24055
| 70>    C        3.71148         7.58835        -9.34204
| 71>    C        4.41014         8.12049        -8.26327
| 72>   Cl        5.15479         7.04900        -7.14585
| 73>    C        4.51631         9.50246        -8.07663
| 74>   Cl        5.38890        10.12405        -6.73470
| 75>    C        3.91799        10.37730        -8.97551
| 76>    C        3.22689         9.84391       -10.04285
| 77>    C        2.51585        10.55395       -11.12734
| 78>    O        2.41858        11.75941       -11.24843
| 79>    C       -0.02590        14.84542       -20.14292
| 80>    C       -0.38997         9.52118       -15.62653
| 81>    C       -1.67901         9.07286       -14.92919
| 82>    C        1.24855         9.69066       -13.15664
| 83>    H       -4.11230        15.73308       -26.16995
| 84>    H       -5.44557        20.29243       -27.65141
| 85>    H       -4.07357        20.70675       -22.32063
| 86>    H       -2.81727        21.43588       -19.00750
| 87>    H       -3.18270        21.73686       -20.71187
| 88>    H       -5.17814        20.77419       -18.60340
| 89>    H       -5.08318        22.40226       -19.28449
| 90>    H       -5.56066        21.04768       -20.30683
| 91>    H       -1.62681        13.54840       -19.49646
| 92>    H       -2.16389        14.97602       -20.37019
| 93>    H       -2.02083        11.17088       -17.05903
| 94>    H       -2.28744        12.65445       -17.95419
| 95>    H        0.08840        10.71773       -18.26901
| 96>    H       -1.21754        10.95691       -19.43113
| 97>    H       -0.02500        12.23070       -19.13623
| 98>    H        3.65418         6.51800        -9.45109
| 99>    H        3.99088        11.44552        -8.84595
|100>    H        0.12776        15.90211       -20.34887
|101>    H        0.70822        14.53081       -19.40309
|102>    H        0.13443        14.28865       -21.06177
|103>    H       -0.58495         9.63361       -16.68980
|104>    H        0.35814         8.73385       -15.52468
|105>    H       -2.45937         9.82445       -15.03487
|106>    H       -2.02822         8.14041       -15.36402
|107>    H       -1.50540         8.91241       -13.86848
|108>    H        0.94767         8.77520       -13.64505
|109> *
|110>
|111>                          ****END OF INPUT****

CARTESIAN COORDINATES (ANGSTROEM)
---------------------------------
  C     -4.021430   17.786390  -24.179660
  O     -3.652660   16.821940  -23.531630
  C     -4.396080   17.779660  -25.607450
  C     -4.401860   16.721000  -26.491330
  C     -4.788530   16.962840  -27.803800
  Cl    -4.807000   15.673200  -28.937740
  C     -5.159900   18.251060  -28.202190
  Cl    -5.633500   18.537730  -29.828010
  C     -5.153240   19.314880  -27.305280
  C     -4.767800   19.077930  -25.996600
  C     -4.651700   19.967180  -24.840270
  C     -4.945620   21.307140  -24.846640
  C     -4.847170   22.180770  -23.743890
  N     -4.795920   22.956770  -22.897710
  C     -5.399290   22.011210  -25.982310
  N     -5.769380   22.646480  -26.863860
  C     -4.179550   19.168590  -23.727180
  C     -3.905920   19.648560  -22.466510
  C     -3.428220   19.004590  -21.323760
  S     -3.045520   17.284250  -21.219070
  C     -2.554350   17.481350  -19.580450
  C     -2.684480   18.813590  -19.146240
  C     -3.176310   19.678300  -20.112930
  C     -3.441120   21.123730  -19.847360
  C     -4.912520   21.349110  -19.487430
  S     -2.156790   19.067160  -17.491940
  C     -1.753290   17.388530  -17.399590
  C     -2.034170   16.671900  -18.567780
  N     -1.685150   15.354380  -18.414090
  C     -1.445930   14.607820  -19.632840
  C     -1.153150   15.207100  -17.138520
  C     -1.168550   16.487310  -16.502420
  C     -0.578220   16.714810  -15.239970
  N     -0.483460   17.848670  -14.562730
  S      0.365750   17.566610  -13.213590
  N      0.640110   15.989200  -13.441080
  C      0.076570   15.625560  -14.581910
  C     -0.014890   14.338320  -15.154780
  C     -0.683970   14.093050  -16.387460
  N     -0.758630   12.723650  -16.568020
  C     -1.510080   11.997120  -17.560820
  C     -0.612380   11.444680  -18.671080
  C     -0.133770   12.101880  -15.504020
  C      0.360460   13.094920  -14.635200
  S      1.173120   12.487530  -13.265080
  C      0.837230   10.847500  -13.827320
  C      0.109840   10.807240  -15.040080
  C      1.972380    9.508940  -12.001330
  C      2.336370    8.216750  -11.455500
  C      2.033080    6.975780  -11.958510
  C      2.424120    5.760580  -11.357540
  N      2.701610    4.733310  -10.926490
  C      1.298800    6.711090  -13.132300
  N      0.716120    6.400680  -14.073540
  C      3.114980    8.457440  -10.240550
  C      3.711480    7.588350   -9.342040
  C      4.410140    8.120490   -8.263270
  Cl     5.154790    7.049000   -7.145850
  C      4.516310    9.502460   -8.076630
  Cl     5.388900   10.124050   -6.734700
  C      3.917990   10.377300   -8.975510
  C      3.226890    9.843910  -10.042850
  C      2.515850   10.553950  -11.127340
  O      2.418580   11.759410  -11.248430
  C     -0.025900   14.845420  -20.142920
  C     -0.389970    9.521180  -15.626530
  C     -1.679010    9.072860  -14.929190
  C      1.248550    9.690660  -13.156640
  H     -4.112300   15.733080  -26.169950
  H     -5.445570   20.292430  -27.651410
  H     -4.073570   20.706750  -22.320630
  H     -2.817270   21.435880  -19.007500
  H     -3.182700   21.736860  -20.711870
  H     -5.178140   20.774190  -18.603400
  H     -5.083180   22.402260  -19.284490
  H     -5.560660   21.047680  -20.306830
  H     -1.626810   13.548400  -19.496460
  H     -2.163890   14.976020  -20.370190
  H     -2.020830   11.170880  -17.059030
  H     -2.287440   12.654450  -17.954190
  H      0.088400   10.717730  -18.269010
  H     -1.217540   10.956910  -19.431130
  H     -0.025000   12.230700  -19.136230
  H      3.654180    6.518000   -9.451090
  H      3.990880   11.445520   -8.845950
  H      0.127760   15.902110  -20.348870
  H      0.708220   14.530810  -19.403090
  H      0.134430   14.288650  -21.061770
  H     -0.584950    9.633610  -16.689800
  H      0.358140    8.733850  -15.524680
  H     -2.459370    9.824450  -15.034870
  H     -2.028220    8.140410  -15.364020
  H     -1.505400    8.912410  -13.868480
  H      0.947670    8.775200  -13.645050

 Total Charge           Charge          ....    0
 Multiplicity           Mult            ....    1
 Number of Electrons    NEL             ....  530
 Basis Dimension        Dim             .... 1114

ORBITAL ENERGIES
----------------

  NO   OCC          E(Eh)            E(eV)
   0   2.0000    -101.629638     -2765.4830
   1   2.0000    -101.627288     -2765.4191
   2   2.0000    -101.623832     -2765.3251
   3   2.0000    -101.622005     -2765.2754
   4   2.0000     -89.033833     -2422.7338
   5   2.0000     -88.998439     -2421.7707
   6   2.0000     -88.994933     -2421.6752
   7   2.0000     -88.983695     -2421.3694
   8   2.0000     -19.265868      -524.2509
   9   2.0000     -19.256596      -523.9986
  10   2.0000     -14.529401      -395.3651
  11   2.0000     -14.526858      -395.2959
  12   2.0000     -14.473230      -393.8366
  13   2.0000     -14.470752      -393.7692
  14   2.0000     -14.460533      -393.4911
  15   2.0000     -14.457592      -393.4111
  16   2.0000     -14.453347      -393.2956
  17   2.0000     -14.448681      -393.1686
  18   2.0000     -10.413028      -283.3529
  19   2.0000     -10.404501      -283.1209
  20   2.0000     -10.395797      -282.8840
  21   2.0000     -10.395175      -282.8671
  22   2.0000     -10.389999      -282.7263
  23   2.0000     -10.389383      -282.7095
  24   2.0000     -10.386387      -282.6280
  25   2.0000     -10.385725      -282.6100
  26   2.0000     -10.383793      -282.5574
  27   2.0000     -10.382232      -282.5149
  28   2.0000     -10.381475      -282.4943
  29   2.0000     -10.376573      -282.3609
  30   2.0000     -10.375766      -282.3390
  31   2.0000     -10.372381      -282.2468
  32   2.0000     -10.365889      -282.0702
  33   2.0000     -10.362506      -281.9781
  34   2.0000     -10.361786      -281.9585
  35   2.0000     -10.359831      -281.9053
  36   2.0000     -10.359502      -281.8964
  37   2.0000     -10.358508      -281.8693
  38   2.0000     -10.356626      -281.8181
  39   2.0000     -10.356605      -281.8176
  40   2.0000     -10.355874      -281.7976
  41   2.0000     -10.354657      -281.7645
  42   2.0000     -10.354623      -281.7636
  43   2.0000     -10.354392      -281.7573
  44   2.0000     -10.351782      -281.6863
  45   2.0000     -10.350444      -281.6499
  46   2.0000     -10.349473      -281.6235
  47   2.0000     -10.349383      -281.6210
  48   2.0000     -10.349086      -281.6130
  49   2.0000     -10.348652      -281.6011
  50   2.0000     -10.348330      -281.5924
  51   2.0000     -10.348182      -281.5884
  52   2.0000     -10.347156      -281.5604
  53   2.0000     -10.341649      -281.4106
  54   2.0000     -10.341390      -281.4035
  55   2.0000     -10.339924      -281.3636
  56   2.0000     -10.338527      -281.3256
  57   2.0000     -10.336139      -281.2606
  58   2.0000     -10.335258      -281.2367
  59   2.0000     -10.333517      -281.1893
  60   2.0000     -10.328983      -281.0659
  61   2.0000     -10.327042      -281.0131
  62   2.0000     -10.324719      -280.9499
  63   2.0000     -10.324362      -280.9402
  64   2.0000     -10.321777      -280.8698
  65   2.0000     -10.318040      -280.7682
  66   2.0000     -10.304749      -280.4065
  67   2.0000     -10.299736      -280.2701
  68   2.0000      -9.606419      -261.4039
  69   2.0000      -9.604031      -261.3390
  70   2.0000      -9.600644      -261.2468
  71   2.0000      -9.598853      -261.1981
  72   2.0000      -8.144943      -221.6352
  73   2.0000      -8.109488      -220.6704
  74   2.0000      -8.107631      -220.6198
  75   2.0000      -8.095256      -220.2831
  76   2.0000      -7.366387      -200.4496
  77   2.0000      -7.364065      -200.3864
  78   2.0000      -7.360653      -200.2936
  79   2.0000      -7.358859      -200.2447
  80   2.0000      -7.356480      -200.1800
  81   2.0000      -7.355822      -200.1621
  82   2.0000      -7.354065      -200.1143
  83   2.0000      -7.353390      -200.0959
  84   2.0000      -7.350681      -200.0222
  85   2.0000      -7.350012      -200.0040
  86   2.0000      -7.348862      -199.9727
  87   2.0000      -7.348245      -199.9559
  88   2.0000      -6.106726      -166.1725
  89   2.0000      -6.098848      -165.9581
  90   2.0000      -6.096667      -165.8987
  91   2.0000      -6.069587      -165.1618
  92   2.0000      -6.067726      -165.1112
  93   2.0000      -6.064877      -165.0337
  94   2.0000      -6.063729      -165.0025
  95   2.0000      -6.061172      -164.9329
  96   2.0000      -6.058651      -164.8643
  97   2.0000      -6.055161      -164.7693
  98   2.0000      -6.050669      -164.6471
  99   2.0000      -6.046922      -164.5451
 100   2.0000      -1.183668       -32.2092
 101   2.0000      -1.175457       -31.9858
 102   2.0000      -1.160618       -31.5820
 103   2.0000      -1.152979       -31.3741
 104   2.0000      -1.144991       -31.1568
 105   2.0000      -1.073906       -29.2225
 106   2.0000      -1.068225       -29.0679
 107   2.0000      -1.060188       -28.8492
 108   2.0000      -1.056749       -28.7556
 109   2.0000      -1.055845       -28.7310
 110   2.0000      -1.038521       -28.2596
 111   2.0000      -1.034674       -28.1549
 112   2.0000      -1.034028       -28.1373
 113   2.0000      -1.031113       -28.0580
 114   2.0000      -1.025786       -27.9131
 115   2.0000      -1.014884       -27.6164
 116   2.0000      -1.006970       -27.4010
 117   2.0000      -1.001884       -27.2626
 118   2.0000      -0.996276       -27.1100
 119   2.0000      -0.995423       -27.0868
 120   2.0000      -0.975721       -26.5507
 121   2.0000      -0.971753       -26.4428
 122   2.0000      -0.961790       -26.1716
 123   2.0000      -0.946097       -25.7446
 124   2.0000      -0.940896       -25.6031
 125   2.0000      -0.939449       -25.5637
 126   2.0000      -0.933082       -25.3905
 127   2.0000      -0.927393       -25.2356
 128   2.0000      -0.916155       -24.9298
 129   2.0000      -0.911279       -24.7972
 130   2.0000      -0.903258       -24.5789
 131   2.0000      -0.897657       -24.4265
 132   2.0000      -0.895023       -24.3548
 133   2.0000      -0.887229       -24.1427
 134   2.0000      -0.871329       -23.7101
 135   2.0000      -0.865190       -23.5430
 136   2.0000      -0.853559       -23.2265
 137   2.0000      -0.844644       -22.9839
 138   2.0000      -0.842372       -22.9221
 139   2.0000      -0.826033       -22.4775
 140   2.0000      -0.811344       -22.0778
 141   2.0000      -0.805584       -21.9211
 142   2.0000      -0.799667       -21.7601
 143   2.0000      -0.796075       -21.6623
 144   2.0000      -0.793625       -21.5956
 145   2.0000      -0.775541       -21.1035
 146   2.0000      -0.764219       -20.7955
 147   2.0000      -0.762214       -20.7409
 148   2.0000      -0.757391       -20.6097
 149   2.0000      -0.748286       -20.3619
 150   2.0000      -0.740444       -20.1485
 151   2.0000      -0.737657       -20.0727
 152   2.0000      -0.736152       -20.0317
 153   2.0000      -0.731177       -19.8964
 154   2.0000      -0.723255       -19.6808
 155   2.0000      -0.709417       -19.3042
 156   2.0000      -0.703094       -19.1322
 157   2.0000      -0.694289       -18.8926
 158   2.0000      -0.690780       -18.7971
 159   2.0000      -0.684072       -18.6146
 160   2.0000      -0.673247       -18.3200
 161   2.0000      -0.668867       -18.2008
 162   2.0000      -0.661966       -18.0130
 163   2.0000      -0.655421       -17.8349
 164   2.0000      -0.653930       -17.7943
 165   2.0000      -0.651091       -17.7171
 166   2.0000      -0.639886       -17.4122
 167   2.0000      -0.633947       -17.2506
 168   2.0000      -0.626473       -17.0472
 169   2.0000      -0.624932       -17.0053
 170   2.0000      -0.620592       -16.8872
 171   2.0000      -0.614876       -16.7316
 172   2.0000      -0.611264       -16.6334
 173   2.0000      -0.609704       -16.5909
 174   2.0000      -0.605832       -16.4855
 175   2.0000      -0.597036       -16.2462
 176   2.0000      -0.595213       -16.1966
 177   2.0000      -0.592451       -16.1214
 178   2.0000      -0.589695       -16.0464
 179   2.0000      -0.588869       -16.0239
 180   2.0000      -0.586805       -15.9678
 181   2.0000      -0.585758       -15.9393
 182   2.0000      -0.582439       -15.8490
 183   2.0000      -0.581028       -15.8106
 184   2.0000      -0.576410       -15.6849
 185   2.0000      -0.574882       -15.6433
 186   2.0000      -0.573209       -15.5978
 187   2.0000      -0.569812       -15.5054
 188   2.0000      -0.566964       -15.4279
 189   2.0000      -0.562034       -15.2937
 190   2.0000      -0.559155       -15.2154
 191   2.0000      -0.552672       -15.0390
 192   2.0000      -0.551250       -15.0003
 193   2.0000      -0.549283       -14.9467
 194   2.0000      -0.546669       -14.8756
 195   2.0000      -0.544473       -14.8159
 196   2.0000      -0.543567       -14.7912
 197   2.0000      -0.539998       -14.6941
 198   2.0000      -0.536479       -14.5983
 199   2.0000      -0.533510       -14.5175
 200   2.0000      -0.532599       -14.4928
 201   2.0000      -0.529151       -14.3989
 202   2.0000      -0.525103       -14.2888
 203   2.0000      -0.524323       -14.2676
 204   2.0000      -0.521069       -14.1790
 205   2.0000      -0.519496       -14.1362
 206   2.0000      -0.516736       -14.0611
 207   2.0000      -0.515227       -14.0200
 208   2.0000      -0.514408       -13.9978
 209   2.0000      -0.509119       -13.8538
 210   2.0000      -0.505977       -13.7683
 211   2.0000      -0.505221       -13.7478
 212   2.0000      -0.500113       -13.6088
 213   2.0000      -0.498956       -13.5773
 214   2.0000      -0.493764       -13.4360
 215   2.0000      -0.491775       -13.3819
 216   2.0000      -0.491347       -13.3702
 217   2.0000      -0.489770       -13.3273
 218   2.0000      -0.488751       -13.2996
 219   2.0000      -0.482607       -13.1324
 220   2.0000      -0.482146       -13.1199
 221   2.0000      -0.479826       -13.0567
 222   2.0000      -0.478812       -13.0291
 223   2.0000      -0.478716       -13.0265
 224   2.0000      -0.473309       -12.8794
 225   2.0000      -0.473091       -12.8735
 226   2.0000      -0.470541       -12.8041
 227   2.0000      -0.469674       -12.7805
 228   2.0000      -0.467319       -12.7164
 229   2.0000      -0.466683       -12.6991
 230   2.0000      -0.466174       -12.6852
 231   2.0000      -0.464006       -12.6262
 232   2.0000      -0.461958       -12.5705
 233   2.0000      -0.461618       -12.5613
 234   2.0000      -0.461138       -12.5482
 235   2.0000      -0.457879       -12.4595
 236   2.0000      -0.453102       -12.3295
 237   2.0000      -0.448907       -12.2154
 238   2.0000      -0.445080       -12.1112
 239   2.0000      -0.444823       -12.1042
 240   2.0000      -0.441459       -12.0127
 241   2.0000      -0.439621       -11.9627
 242   2.0000      -0.439070       -11.9477
 243   2.0000      -0.437969       -11.9177
 244   2.0000      -0.435017       -11.8374
 245   2.0000      -0.429826       -11.6962
 246   2.0000      -0.426100       -11.5948
 247   2.0000      -0.418913       -11.3992
 248   2.0000      -0.413545       -11.2531
 249   2.0000      -0.404158       -10.9977
 250   2.0000      -0.399786       -10.8787
 251   2.0000      -0.395761       -10.7692
 252   2.0000      -0.382882       -10.4188
 253   2.0000      -0.377524       -10.2730
 254   2.0000      -0.375740       -10.2244
 255   2.0000      -0.371517       -10.1095
 256   2.0000      -0.367398        -9.9974
 257   2.0000      -0.357835        -9.7372
 258   2.0000      -0.353651        -9.6233
 259   2.0000      -0.346515        -9.4292
 260   2.0000      -0.340936        -9.2774
 261   2.0000      -0.327929        -8.9234
 262   2.0000      -0.313847        -8.5402
 263   2.0000      -0.308567        -8.3965
 264   2.0000      -0.274684        -7.4745
 265   0.0000      -0.083543        -2.2733
 266   0.0000      -0.067023        -1.8238
 267   0.0000      -0.049146        -1.3373
 268   0.0000      -0.041137        -1.1194
 269   0.0000      -0.016967        -0.4617

MULLIKEN ATOMIC CHARGES
-----------------------
   0 C :    0.232613
   1 O :   -0.204825
   2 C :   -0.062713
   3 C :   -0.011470
   4 C :    0.041583
   5 Cl:   -0.045070
   6 C :    0.028266
   7 Cl:   -0.036199
   8 C :    0.003096
   9 C :    0.013929
  10 C :    0.294615
  11 C :   -0.383151
  12 C :   -0.120116
  13 N :    0.098753
  14 C :   -0.130780
  15 N :    0.110287
  16 C :   -0.149087
  17 C :    0.004463
  18 C :   -0.099659
  19 S :    0.179379
  20 C :   -0.010445
  21 C :   -0.093721
  22 C :   -0.083275
  23 C :    0.005178
  24 C :   -0.012765
  25 S :    0.207781
  26 C :   -0.049358
  27 C :    0.028978
  28 N :   -0.250157
  29 C :    0.060240
  30 C :    0.106072
  31 C :   -0.119986
  32 C :    0.020988
  33 N :   -0.299885
  34 S :    0.485697
  35 N :   -0.291019
  36 C :    0.023957
  37 C :   -0.114272
  38 C :    0.114191
  39 N :   -0.257529
  40 C :    0.043857
  41 C :   -0.038468
  42 C :    0.116274
  43 C :   -0.026798
  44 S :    0.233024
  45 C :   -0.136287
  46 C :   -0.086838
  47 C :   -0.151522
  48 C :    0.294255
  49 C :   -0.388933
  50 C :   -0.131683
  51 N :    0.109662
  52 C :   -0.113872
  53 N :    0.087973
  54 C :    0.012015
  55 C :   -0.000138
  56 C :    0.029666
  57 Cl:   -0.039595
  58 C :    0.043559
  59 Cl:   -0.046049
  60 C :   -0.010882
  61 C :   -0.065370
  62 C :    0.228994
  63 O :   -0.184460
  64 C :   -0.046092
  65 C :    0.003904
  66 C :   -0.004914
  67 C :    0.011096
  68 H :    0.026935
  69 H :    0.029348
  70 H :   -0.006980
  71 H :    0.041669
  72 H :    0.060548
  73 H :    0.036038
  74 H :    0.057710
  75 H :    0.033816
  76 H :    0.025847
  77 H :    0.062299
  78 H :    0.053785
  79 H :    0.054904
  80 H :    0.056603
  81 H :    0.056006
  82 H :    0.035193
  83 H :    0.028125
  84 H :    0.031237
  85 H :    0.056091
  86 H :    0.055810
  87 H :    0.055668
  88 H :    0.013933
  89 H :    0.057578
  90 H :    0.030324
  91 H :    0.056942
  92 H :    0.036280
  93 H :   -0.022673
Sum of atomic charges:   -0.0000000

LOEWDIN ATOMIC CHARGES
----------------------
   0 C :    0.092566
   1 O :   -0.171644
   2 C :   -0.047634
   3 C :    0.000121
   4 C :   -0.134884
   5 Cl:    0.153571
   6 C :   -0.130656
   7 Cl:    0.158111
   8 C :   -0.009417
   9 C :   -0.016606
  10 C :    0.081247
  11 C :   -0.150608
  12 C :   -0.012342
  13 N :   -0.057914
  14 C :   -0.015664
  15 N :   -0.051960
  16 C :   -0.132473
  17 C :    0.067980
  18 C :   -0.195125
  19 S :    0.472700
  20 C :   -0.192850
  21 C :   -0.196994
  22 C :   -0.006672
  23 C :   -0.034088
  24 C :   -0.043819
  25 S :    0.419464
  26 C :   -0.166829
  27 C :   -0.042466
  28 N :    0.032305
  29 C :    0.040380
  30 C :    0.008793
  31 C :   -0.070486
  32 C :   -0.056879
  33 N :   -0.285975
  34 S :    0.604094
  35 N :   -0.282536
  36 C :   -0.051149
  37 C :   -0.090885
  38 C :    0.029050
  39 N :    0.029247
  40 C :    0.036962
  41 C :   -0.068193
  42 C :   -0.029410
  43 C :   -0.167589
  44 S :    0.501589
  45 C :   -0.192880
  46 C :   -0.015719
  47 C :   -0.131324
  48 C :    0.083263
  49 C :   -0.156153
  50 C :   -0.015869
  51 N :   -0.055569
  52 C :   -0.010426
  53 N :   -0.065302
  54 C :   -0.018370
  55 C :   -0.010511
  56 C :   -0.131668
  57 Cl:    0.155253
  58 C :   -0.134364
  59 Cl:    0.153292
  60 C :    0.001119
  61 C :   -0.045903
  62 C :    0.088891
  63 O :   -0.156495
  64 C :   -0.062392
  65 C :   -0.038800
  66 C :   -0.045438
  67 C :    0.063332
  68 H :    0.048611
  69 H :    0.047421
  70 H :    0.047757
  71 H :    0.034818
  72 H :    0.039845
  73 H :    0.028232
  74 H :    0.036345
  75 H :    0.026109
  76 H :    0.024435
  77 H :    0.029262
  78 H :    0.034686
  79 H :    0.030591
  80 H :    0.033108
  81 H :    0.037766
  82 H :    0.029301
  83 H :    0.046841
  84 H :    0.050341
  85 H :    0.035931
  86 H :    0.030344
  87 H :    0.037312
  88 H :    0.027377
  89 H :    0.039862
  90 H :    0.022666
  91 H :    0.035847
  92 H :    0.028632
  93 H :    0.044160

  Mayer bond orders larger than 0.100000
B(  0-C ,  1-O ) :   2.1176 B(  0-C ,  2-C ) :   0.9619 B(  0-C , 16-C ) :   0.9842
B(  2-C ,  3-C ) :   1.3735 B(  2-C ,  9-C ) :   1.3328 B(  3-C ,  4-C ) :   1.3510
B(  3-C , 68-H ) :   1.0126 B(  4-C ,  5-Cl) :   1.0520 B(  4-C ,  6-C ) :   1.4101
B(  6-C ,  7-Cl) :   1.0826 B(  6-C ,  8-C ) :   1.3685 B(  8-C ,  9-C ) :   1.3719
B(  8-C , 69-H ) :   0.9834 B(  9-C , 10-C ) :   1.0019 B( 10-C , 11-C ) :   1.6270
B( 10-C , 16-C ) :   1.1071 B( 11-C , 12-C ) :   1.1419 B( 11-C , 14-C ) :   1.1334
B( 12-C , 13-N ) :   2.9533 B( 14-C , 15-N ) :   2.9665 B( 16-C , 17-C ) :   1.5124
B( 17-C , 18-C ) :   1.3267 B( 17-C , 70-H ) :   0.9269 B( 18-C , 19-S ) :   1.0367
B( 18-C , 22-C ) :   1.3805 B( 19-S , 20-C ) :   1.0387 B( 20-C , 21-C ) :   1.4079
B( 20-C , 27-C ) :   1.3121 B( 21-C , 22-C ) :   1.4555 B( 21-C , 25-S ) :   1.0197
B( 22-C , 23-C ) :   1.0535 B( 23-C , 24-C ) :   1.0887 B( 23-C , 71-H ) :   0.9327
B( 23-C , 72-H ) :   0.9136 B( 24-C , 73-H ) :   0.9697 B( 24-C , 74-H ) :   0.9710
B( 24-C , 75-H ) :   0.9730 B( 25-S , 26-C ) :   1.0227 B( 26-C , 27-C ) :   1.4117
B( 26-C , 31-C ) :   1.3898 B( 27-C , 28-N ) :   1.1450 B( 28-N , 29-C ) :   0.9391
B( 28-N , 30-C ) :   1.1487 B( 29-C , 64-C ) :   1.0947 B( 29-C , 76-H ) :   0.9480
B( 29-C , 77-H ) :   0.9424 B( 30-C , 31-C ) :   1.3977 B( 30-C , 38-C ) :   1.1324
B( 31-C , 32-C ) :   1.1297 B( 32-C , 33-N ) :   1.6138 B( 32-C , 36-C ) :   1.1455
B( 33-N , 34-S ) :   1.2320 B( 33-N , 35-N ) :   0.1309 B( 34-S , 35-N ) :   1.2316
B( 35-N , 36-C ) :   1.6155 B( 36-C , 37-C ) :   1.1408 B( 37-C , 38-C ) :   1.3731
B( 37-C , 43-C ) :   1.3603 B( 38-C , 39-N ) :   1.1798 B( 39-N , 40-C ) :   0.9337
B( 39-N , 42-C ) :   1.1037 B( 40-C , 41-C ) :   1.0828 B( 40-C , 78-H ) :   0.9460
B( 40-C , 79-H ) :   0.9543 B( 41-C , 80-H ) :   0.9561 B( 41-C , 81-H ) :   0.9681
B( 41-C , 82-H ) :   0.9622 B( 42-C , 43-C ) :   1.3253 B( 42-C , 46-C ) :   1.3650
B( 43-C , 44-S ) :   1.0517 B( 44-S , 45-C ) :   1.0499 B( 45-C , 46-C ) :   1.3663
B( 45-C , 67-C ) :   1.3287 B( 46-C , 65-C ) :   1.0573 B( 47-C , 48-C ) :   1.1155
B( 47-C , 62-C ) :   0.9671 B( 47-C , 67-C ) :   1.5252 B( 48-C , 49-C ) :   1.6153
B( 48-C , 54-C ) :   0.9995 B( 49-C , 50-C ) :   1.1328 B( 49-C , 52-C ) :   1.1472
B( 50-C , 51-N ) :   2.9679 B( 52-C , 53-N ) :   2.9435 B( 54-C , 55-C ) :   1.3689
B( 54-C , 61-C ) :   1.3349 B( 55-C , 56-C ) :   1.3700 B( 55-C , 83-H ) :   0.9843
B( 56-C , 57-Cl) :   1.0795 B( 56-C , 58-C ) :   1.4102 B( 58-C , 59-Cl) :   1.0520
B( 58-C , 60-C ) :   1.3476 B( 60-C , 61-C ) :   1.3769 B( 60-C , 84-H ) :   1.0129
B( 61-C , 62-C ) :   0.9558 B( 62-C , 63-O ) :   2.1523 B( 64-C , 85-H ) :   0.9621
B( 64-C , 86-H ) :   0.9626 B( 64-C , 87-H ) :   0.9694 B( 65-C , 66-C ) :   1.1006
B( 65-C , 88-H ) :   0.9293 B( 65-C , 89-H ) :   0.8995 B( 66-C , 90-H ) :   0.9645
B( 66-C , 91-H ) :   0.9703 B( 66-C , 92-H ) :   0.9679 B( 67-C , 93-H ) :   0.9227

-----------------------------------------------------------------------------
         ABSORPTION SPECTRUM VIA TRANSITION ELECTRIC DIPOLE MOMENTS
-----------------------------------------------------------------------------
State   Energy  Wavelength   fosc         T2         TX        TY        TZ
        (cm-1)    (nm)                  (au**2)     (au)      (au)      (au)
-----------------------------------------------------------------------------
   0   19535.2    511.9   3.443152341  58.02472   2.82739  -4.51745   5.44272
   1   26089.8    383.3   0.231069566   2.91573   0.07370   1.26318   1.14660
   2   27991.3    357.3   0.113407401   1.33381   0.01951   1.10057   0.34955
   3   28716.2    348.2   0.177257749   2.03214  -0.38409  -0.95039  -0.99064
   4   29208.4    342.4   0.090824495   1.02370  -0.13664  -0.55894  -0.83223
   5   29407.6    340.0   0.053451037   0.59837  -0.39380   0.60935  -0.26829
   6   30380.6    329.2   0.000666097   0.00722   0.02868  -0.05666  -0.05644
   7   30856.4    324.1   0.000477521   0.00509   0.06270  -0.03376   0.00485
   8   32562.6    307.1   0.022017246   0.22260   0.08609   0.46198  -0.04200
   9   32810.2    304.8   0.104853833   1.05208   0.11413  -0.98705   0.25454
  10   34921.3    286.4   0.368849634   3.47724   0.46986   1.30887   1.24231
  11   35164.5    284.4   0.079927687   0.74829   0.11862  -0.08309   0.85283
  12   35282.9    283.4   0.002178714   0.02033   0.05989   0.05312  -0.11798
  13   35662.8    280.4   0.068987798   0.63684  -0.33948   0.71557   0.09777
  14   36025.8    277.6   0.023446303   0.21426   0.19702   0.13006   0.39815
  15   36263.1    275.8   0.067234219   0.61038  -0.65358   0.04472  -0.42570
  16   37153.0    269.2   0.424491591   3.76141   0.77659   0.74219   1.61477
  17   38129.8    262.3   0.564482160   4.87373   0.17533   2.02773   0.85516
  18   38494.2    259.8   0.257503271   2.20223   0.58468  -1.36367  -0.02794
  19   39243.0    254.8   0.076571356   0.64236  -0.12093  -0.67975  -0.40703
  20   39897.4    250.6   0.069606541   0.57436  -0.17211   0.55628   0.48506

Dispersion correction           -0.063525527
FINAL SINGLE POINT ENERGY     -5939.302006279357

DIPOLE MOMENT
-------------
                                X             Y             Z
Electronic contribution:     20.78737       1.03780      13.28575
Nuclear contribution   :    -21.06167      -1.40092     -14.22872
                        -----------------------------------------
Total Dipole Moment    :     -0.27430      -0.36312      -0.94296
                        -----------------------------------------
Magnitude (a.u.)       :      1.04703
Magnitude (Debye)      :      2.66135

Rotational constants in cm-1:     0.002132     0.000241     0.000219
Rotational constants in MHz :    63.906107     7.215638     6.559785

                             ****ORCA TERMINATED NORMALLY****
TOTAL RUN TIME: 0 days 0 hours 20 minutes 8 seconds 63 msec
