                         Program Version 4.2.0 -  RELEASE  -
|  1> # ORCA input file
|  2> # SCF done       -212.275230314889          0.000508249392
|  3> ! wb97x-d3 def2-SVP def2/J RIJCOSX Grid4 TightSCF
|  4> %maxcore 5000
|  5> %tddft
|  6>     Mode sTDA
|  7>     Ethresh 5.0
|  8>     maxcore 5000
|  9> end
| 10>
| 11> %pal
| 12>   nprocs 6
| 13>   end
| 14> * xyz 0 1
| 15>    C        3.16104        -0.86441        -9.96672
| 16>    O        1.99840        -1.04805        -9.65661
| 17>    C        4.02244        -1.80499       -10.71411
| 18>    C        3.70720        -3.06021       -11.19396
| 19>    C        4.69936        -3.75909       -11.86294
| 20>    C        5.96587        -3.20161       -12.03775
| 21>    C        6.28060        -1.93891       -11.55660
| 22>    C        5.29397        -1.23311       -10.88656
| 23>    C        5.30265         0.09324       -10.26477
| 24>    C        6.37340         0.94996       -10.25691
| 25>    C        6.40161         2.23187        -9.66903
| 26>    N        6.50919         3.28303        -9.21819
| 27>    C        7.62050         0.66307       -10.85216
| 28>    N        8.65700         0.49338       -11.31492
| 29>    C        3.99247         0.30753        -9.68695
| 30>    C        3.59936         1.41802        -8.97563
| 31>    C      -10.50411         9.48604         2.06599
| 32>    O       -9.55136         9.16388         1.37941
| 33>    C      -10.53073        10.58043         3.05900
| 34>    C       -9.51020        11.43751         3.41848
| 35>    C       -9.78297        12.38902         4.38833
| 36>    C      -11.04785        12.46645         4.97099
| 37>    C      -12.07295        11.60468         4.60799
| 38>    C      -11.80838        10.64978         3.63915
| 39>    C      -12.65215         9.60923         3.04662
| 40>    C      -13.96896         9.39249         3.36100
| 41>    C      -14.80121         8.40246         2.79745
| 42>    N      -15.54559         7.62769         2.39092
| 43>    C      -14.69094        10.14940         4.30854
| 44>    N      -15.33467        10.72383         5.06535
| 45>    C      -11.83947         8.88776         2.08938
| 46>    C      -12.24669         7.80605         1.34244
| 47>    C      -11.55522         7.03199         0.40746
| 48>    S       -9.89126         7.25409        -0.12177
| 49>    C      -10.04406         5.89676        -1.14825
| 50>    C      -11.31200         5.28607        -1.09543
| 51>    C      -12.15816         5.93100        -0.22904
| 52>    C       -9.23806         5.15835        -2.03801
| 53>    C       -9.96958         4.07982        -2.55128
| 54>    C      -11.38348         4.09562        -2.02457
| 55>    S       -7.61984         5.19187        -2.60226
| 56>    C       -7.91196         3.72588        -3.51669
| 57>    C       -9.21418         3.26247        -3.37641
| 58>    C       -6.87790         3.12947        -4.27520
| 59>    C       -3.30848         2.62656        -5.84581
| 60>    S       -2.64978         1.31354        -6.79780
| 61>    C       -1.14351         2.13265        -6.85553
| 62>    C       -1.15566         3.36079        -6.18312
| 63>    C       -2.38129         3.63625        -5.60627
| 64>    C        0.13723         1.92465        -7.41075
| 65>    C        0.95069         3.03102        -7.09137
| 66>    C        0.19607         4.03230        -6.24893
| 67>    S        0.92409         0.73913        -8.35441
| 68>    C        2.38222         1.72388        -8.36189
| 69>    C        2.20298         2.92033        -7.64212
| 70>    C        0.75580         4.12175        -4.81170
| 71>    C        2.18828         4.62648        -4.70691
| 72>    C        0.12238         5.41283        -6.92042
| 73>    C       -0.55991         5.36748        -8.28271
| 74>    C      -12.40598         4.41499        -3.13854
| 75>    C      -12.51603         3.35985        -4.23073
| 76>    C      -11.73272         2.79546        -1.28395
| 77>    C      -10.82257         2.53675        -0.08897
| 78>    F      -11.28369        13.39373         5.90579
| 79>    F       -8.82353        13.24074         4.76986
| 80>    F        4.44057        -4.98088       -12.34450
| 81>    F        6.90596        -3.89951       -12.68495
| 82>    S       -5.29425         3.88329        -4.38408
| 83>    C       -4.64631         2.59992        -5.39354
| 84>    C       -5.63179         1.66519        -5.61106
| 85>    C       -6.87425         1.95497        -4.99882
| 86>    C       -5.74781         0.39567        -6.32801
| 87>    N       -7.05762        -0.01545        -6.11096
| 88>    C       -7.80050         0.86394        -5.33456
| 89>    C       -7.60908        -1.22591        -6.68162
| 90>    C       -8.14955        -0.97832        -8.08541
| 91>    O       -8.96047         0.69599        -5.03527
| 92>    O       -4.92427        -0.21331        -6.96978
| 93>    H        2.72660        -3.48665       -11.05503
| 94>    H        7.27449        -1.55579       -11.71858
| 95>    H        4.34345         2.19456        -8.84676
| 96>    H       -8.53398        11.37289         2.96514
| 97>    H      -13.03095        11.70755         5.09023
| 98>    H      -13.26659         7.47339         1.49264
| 99>    H      -13.17517         5.64856        -0.02178
|100>    H       -9.54983         2.35912        -3.85308
|101>    H       -2.62804         4.51658        -5.03950
|102>    H        2.99044         3.64905        -7.56655
|103>    H        0.09755         4.77903        -4.23978
|104>    H        0.69827         3.12548        -4.36631
|105>    H        2.28786         5.62779        -5.11606
|106>    H        2.48149         4.66022        -3.66024
|107>    H        2.87242         3.96265        -5.22738
|108>    H       -0.42349         6.09078        -6.26150
|109>    H        1.13506         5.79714        -7.04340
|110>    H       -1.58826         5.02582        -8.19117
|111>    H       -0.56659         6.35937        -8.72773
|112>    H       -0.03303         4.69408        -8.95484
|113>    H      -13.38095         4.55049        -2.66600
|114>    H      -12.12179         5.36842        -3.59128
|115>    H      -12.86544         2.41200        -3.83206
|116>    H      -13.23005         3.69327        -4.98037
|117>    H      -11.55946         3.20190        -4.71997
|118>    H      -12.76950         2.85444        -0.94789
|119>    H      -11.64364         1.96379        -1.98273
|120>    H      -10.90603         3.33455         0.64554
|121>    H      -11.09745         1.60046         0.39008
|122>    H       -9.78413         2.46676        -0.40489
|123>    H       -6.80881        -1.96926        -6.70879
|124>    H       -8.40864        -1.56268        -6.01765
|125>    H       -7.35044        -0.63822        -8.73993
|126>    H       -8.56294        -1.89867        -8.48738
|127>    H       -8.93306        -0.22432        -8.05959
|128> *
|129>
|130>                          ****END OF INPUT****

CARTESIAN COORDINATES (ANGSTROEM)
---------------------------------
  C      3.161040   -0.864410   -9.966720
  O      1.998400   -1.048050   -9.656610
  C      4.022440   -1.804990  -10.714110
  C      3.707200   -3.060210  -11.193960
  C      4.699360   -3.759090  -11.862940
  C      5.965870   -3.201610  -12.037750
  C      6.280600   -1.938910  -11.556600
  C      5.293970   -1.233110  -10.886560
  C      5.302650    0.093240  -10.264770
  C      6.373400    0.949960  -10.256910
  C      6.401610    2.231870   -9.669030
  N      6.509190    3.283030   -9.218190
  C      7.620500    0.663070  -10.852160
  N      8.657000    0.493380  -11.314920
  C      3.992470    0.307530   -9.686950
  C      3.599360    1.418020   -8.975630
  C    -10.504110    9.486040    2.065990
  O     -9.551360    9.163880    1.379410
  C    -10.530730   10.580430    3.059000
  C     -9.510200   11.437510    3.418480
  C     -9.782970   12.389020    4.388330
  C    -11.047850   12.466450    4.970990
  C    -12.072950   11.604680    4.607990
  C    -11.808380   10.649780    3.639150
  C    -12.652150    9.609230    3.046620
  C    -13.968960    9.392490    3.361000
  C    -14.801210    8.402460    2.797450
  N    -15.545590    7.627690    2.390920
  C    -14.690940   10.149400    4.308540
  N    -15.334670   10.723830    5.065350
  C    -11.839470    8.887760    2.089380
  C    -12.246690    7.806050    1.342440
  C    -11.555220    7.031990    0.407460
  S     -9.891260    7.254090   -0.121770
  C    -10.044060    5.896760   -1.148250
  C    -11.312000    5.286070   -1.095430
  C    -12.158160    5.931000   -0.229040
  C     -9.238060    5.158350   -2.038010
  C     -9.969580    4.079820   -2.551280
  C    -11.383480    4.095620   -2.024570
  S     -7.619840    5.191870   -2.602260
  C     -7.911960    3.725880   -3.516690
  C     -9.214180    3.262470   -3.376410
  C     -6.877900    3.129470   -4.275200
  C     -3.308480    2.626560   -5.845810
  S     -2.649780    1.313540   -6.797800
  C     -1.143510    2.132650   -6.855530
  C     -1.155660    3.360790   -6.183120
  C     -2.381290    3.636250   -5.606270
  C      0.137230    1.924650   -7.410750
  C      0.950690    3.031020   -7.091370
  C      0.196070    4.032300   -6.248930
  S      0.924090    0.739130   -8.354410
  C      2.382220    1.723880   -8.361890
  C      2.202980    2.920330   -7.642120
  C      0.755800    4.121750   -4.811700
  C      2.188280    4.626480   -4.706910
  C      0.122380    5.412830   -6.920420
  C     -0.559910    5.367480   -8.282710
  C    -12.405980    4.414990   -3.138540
  C    -12.516030    3.359850   -4.230730
  C    -11.732720    2.795460   -1.283950
  C    -10.822570    2.536750   -0.088970
  F    -11.283690   13.393730    5.905790
  F     -8.823530   13.240740    4.769860
  F      4.440570   -4.980880  -12.344500
  F      6.905960   -3.899510  -12.684950
  S     -5.294250    3.883290   -4.384080
  C     -4.646310    2.599920   -5.393540
  C     -5.631790    1.665190   -5.611060
  C     -6.874250    1.954970   -4.998820
  C     -5.747810    0.395670   -6.328010
  N     -7.057620   -0.015450   -6.110960
  C     -7.800500    0.863940   -5.334560
  C     -7.609080   -1.225910   -6.681620
  C     -8.149550   -0.978320   -8.085410
  O     -8.960470    0.695990   -5.035270
  O     -4.924270   -0.213310   -6.969780
  H      2.726600   -3.486650  -11.055030
  H      7.274490   -1.555790  -11.718580
  H      4.343450    2.194560   -8.846760
  H     -8.533980   11.372890    2.965140
  H    -13.030950   11.707550    5.090230
  H    -13.266590    7.473390    1.492640
  H    -13.175170    5.648560   -0.021780
  H     -9.549830    2.359120   -3.853080
  H     -2.628040    4.516580   -5.039500
  H      2.990440    3.649050   -7.566550
  H      0.097550    4.779030   -4.239780
  H      0.698270    3.125480   -4.366310
  H      2.287860    5.627790   -5.116060
  H      2.481490    4.660220   -3.660240
  H      2.872420    3.962650   -5.227380
  H     -0.423490    6.090780   -6.261500
  H      1.135060    5.797140   -7.043400
  H     -1.588260    5.025820   -8.191170
  H     -0.566590    6.359370   -8.727730
  H     -0.033030    4.694080   -8.954840
  H    -13.380950    4.550490   -2.666000
  H    -12.121790    5.368420   -3.591280
  H    -12.865440    2.412000   -3.832060
  H    -13.230050    3.693270   -4.980370
  H    -11.559460    3.201900   -4.719970
  H    -12.769500    2.854440   -0.947890
  H    -11.643640    1.963790   -1.982730
  H    -10.906030    3.334550    0.645540
  H    -11.097450    1.600460    0.390080
  H     -9.784130    2.466760   -0.404890
  H     -6.808810   -1.969260   -6.708790
  H     -8.408640   -1.562680   -6.017650
  H     -7.350440   -0.638220   -8.739930
  H     -8.562940   -1.898670   -8.487380
  H     -8.933060   -0.224320   -8.059590

 Total Charge           Charge          ....    0
 Multiplicity           Mult            ....    1
 Number of Electrons    NEL             ....  578
 Basis Dimension        Dim             .... 1287

ORBITAL ENERGIES
----------------

  NO   OCC          E(Eh)            E(eV)
   0   2.0000     -89.014354     -2422.2037
   1   2.0000     -89.008132     -2422.0344
   2   2.0000     -89.001216     -2421.8462
   3   2.0000     -89.001083     -2421.8426
   4   2.0000     -88.998705     -2421.7779
   5   2.0000     -24.835092      -675.7972
   6   2.0000     -24.833205      -675.7459
   7   2.0000     -24.833120      -675.7435
   8   2.0000     -24.831386      -675.6964
   9   2.0000     -19.262215      -524.1515
  10   2.0000     -19.259858      -524.0874
  11   2.0000     -19.258593      -524.0530
  12   2.0000     -19.256818      -524.0047
  13   2.0000     -14.500575      -394.5807
  14   2.0000     -14.455572      -393.3561
  15   2.0000     -14.453913      -393.3110
  16   2.0000     -14.450855      -393.2278
  17   2.0000     -14.449135      -393.1810
  18   2.0000     -10.439383      -284.0700
  19   2.0000     -10.436560      -283.9932
  20   2.0000     -10.420774      -283.5637
  21   2.0000     -10.420228      -283.5488
  22   2.0000     -10.418788      -283.5096
  23   2.0000     -10.418223      -283.4943
  24   2.0000     -10.409307      -283.2517
  25   2.0000     -10.406855      -283.1849
  26   2.0000     -10.385404      -282.6012
  27   2.0000     -10.383655      -282.5536
  28   2.0000     -10.383328      -282.5447
  29   2.0000     -10.381401      -282.4923
  30   2.0000     -10.379099      -282.4296
  31   2.0000     -10.376992      -282.3723
  32   2.0000     -10.366106      -282.0761
  33   2.0000     -10.365565      -282.0614
  34   2.0000     -10.362681      -281.9829
  35   2.0000     -10.360631      -281.9271
  36   2.0000     -10.357368      -281.8383
  37   2.0000     -10.357002      -281.8283
  38   2.0000     -10.356814      -281.8232
  39   2.0000     -10.355688      -281.7926
  40   2.0000     -10.355365      -281.7838
  41   2.0000     -10.355282      -281.7816
  42   2.0000     -10.352796      -281.7139
  43   2.0000     -10.352360      -281.7020
  44   2.0000     -10.352293      -281.7002
  45   2.0000     -10.350642      -281.6553
  46   2.0000     -10.350350      -281.6474
  47   2.0000     -10.348895      -281.6077
  48   2.0000     -10.345923      -281.5269
  49   2.0000     -10.343948      -281.4731
  50   2.0000     -10.343187      -281.4524
  51   2.0000     -10.341881      -281.4169
  52   2.0000     -10.341304      -281.4012
  53   2.0000     -10.338524      -281.3255
  54   2.0000     -10.338145      -281.3152
  55   2.0000     -10.337804      -281.3060
  56   2.0000     -10.337799      -281.3058
  57   2.0000     -10.337294      -281.2921
  58   2.0000     -10.336296      -281.2649
  59   2.0000     -10.336131      -281.2604
  60   2.0000     -10.335656      -281.2475
  61   2.0000     -10.332636      -281.1653
  62   2.0000     -10.331772      -281.1418
  63   2.0000     -10.329299      -281.0745
  64   2.0000     -10.329156      -281.0706
  65   2.0000     -10.327290      -281.0198
  66   2.0000     -10.326083      -280.9870
  67   2.0000     -10.323565      -280.9185
  68   2.0000     -10.322499      -280.8895
  69   2.0000     -10.312720      -280.6234
  70   2.0000     -10.312123      -280.6071
  71   2.0000     -10.311267      -280.5838
  72   2.0000     -10.310266      -280.5566
  73   2.0000     -10.296970      -280.1948
  74   2.0000     -10.296164      -280.1729
  75   2.0000     -10.292596      -280.0758
  76   2.0000     -10.291689      -280.0511
  77   2.0000     -10.290702      -280.0242
  78   2.0000      -8.127945      -221.1726
  79   2.0000      -8.121709      -221.0029
  80   2.0000      -8.113689      -220.7847
  81   2.0000      -8.112499      -220.7523
  82   2.0000      -8.110191      -220.6895
  83   2.0000      -6.087792      -165.6573
  84   2.0000      -6.083348      -165.5363
  85   2.0000      -6.081238      -165.4789
  86   2.0000      -6.079786      -165.4394
  87   2.0000      -6.077118      -165.3668
  88   2.0000      -6.073933      -165.2801
  89   2.0000      -6.073298      -165.2628
  90   2.0000      -6.072199      -165.2329
  91   2.0000      -6.069843      -165.1688
  92   2.0000      -6.068888      -165.1428
  93   2.0000      -6.067521      -165.1056
  94   2.0000      -6.065906      -165.0617
  95   2.0000      -6.065186      -165.0421
  96   2.0000      -6.064893      -165.0341
  97   2.0000      -6.062634      -164.9727
  98   2.0000      -1.364605       -37.1328
  99   2.0000      -1.362715       -37.0814
 100   2.0000      -1.349520       -36.7223
 101   2.0000      -1.347633       -36.6710
 102   2.0000      -1.206660       -32.8349
 103   2.0000      -1.182736       -32.1839
 104   2.0000      -1.180364       -32.1193
 105   2.0000      -1.178173       -32.0597
 106   2.0000      -1.098430       -29.8898
 107   2.0000      -1.070393       -29.1269
 108   2.0000      -1.066688       -29.0261
 109   2.0000      -1.062512       -28.9124
 110   2.0000      -1.060621       -28.8610
 111   2.0000      -1.053562       -28.6689
 112   2.0000      -1.044222       -28.4147
 113   2.0000      -1.042364       -28.3642
 114   2.0000      -1.034257       -28.1436
 115   2.0000      -1.032591       -28.0982
 116   2.0000      -1.030931       -28.0531
 117   2.0000      -1.022828       -27.8326
 118   2.0000      -0.999150       -27.1883
 119   2.0000      -0.996945       -27.1283
 120   2.0000      -0.983865       -26.7723
 121   2.0000      -0.978601       -26.6291
 122   2.0000      -0.948373       -25.8065
 123   2.0000      -0.947616       -25.7859
 124   2.0000      -0.945439       -25.7267
 125   2.0000      -0.941384       -25.6164
 126   2.0000      -0.935348       -25.4521
 127   2.0000      -0.927627       -25.2420
 128   2.0000      -0.914543       -24.8860
 129   2.0000      -0.912660       -24.8347
 130   2.0000      -0.906857       -24.6768
 131   2.0000      -0.891544       -24.2601
 132   2.0000      -0.889419       -24.2023
 133   2.0000      -0.887704       -24.1557
 134   2.0000      -0.886516       -24.1233
 135   2.0000      -0.885013       -24.0824
 136   2.0000      -0.883441       -24.0396
 137   2.0000      -0.883090       -24.0301
 138   2.0000      -0.871451       -23.7134
 139   2.0000      -0.858091       -23.3498
 140   2.0000      -0.849324       -23.1113
 141   2.0000      -0.824786       -22.4436
 142   2.0000      -0.815396       -22.1881
 143   2.0000      -0.814176       -22.1549
 144   2.0000      -0.812117       -22.0988
 145   2.0000      -0.808363       -21.9967
 146   2.0000      -0.806734       -21.9524
 147   2.0000      -0.791454       -21.5366
 148   2.0000      -0.790834       -21.5197
 149   2.0000      -0.781044       -21.2533
 150   2.0000      -0.762183       -20.7401
 151   2.0000      -0.748678       -20.3726
 152   2.0000      -0.746698       -20.3187
 153   2.0000      -0.744447       -20.2574
 154   2.0000      -0.741319       -20.1723
 155   2.0000      -0.740202       -20.1419
 156   2.0000      -0.739067       -20.1110
 157   2.0000      -0.730530       -19.8787
 158   2.0000      -0.728926       -19.8351
 159   2.0000      -0.720277       -19.5997
 160   2.0000      -0.718357       -19.5475
 161   2.0000      -0.709033       -19.2938
 162   2.0000      -0.700881       -19.0719
 163   2.0000      -0.696820       -18.9614
 164   2.0000      -0.689564       -18.7640
 165   2.0000      -0.681720       -18.5505
 166   2.0000      -0.681667       -18.5491
 167   2.0000      -0.681110       -18.5339
 168   2.0000      -0.678149       -18.4534
 169   2.0000      -0.675286       -18.3755
 170   2.0000      -0.671093       -18.2614
 171   2.0000      -0.668732       -18.1971
 172   2.0000      -0.661121       -17.9900
 173   2.0000      -0.655716       -17.8429
 174   2.0000      -0.651546       -17.7295
 175   2.0000      -0.641866       -17.4661
 176   2.0000      -0.635794       -17.3008
 177   2.0000      -0.630929       -17.1684
 178   2.0000      -0.629465       -17.1286
 179   2.0000      -0.625150       -17.0112
 180   2.0000      -0.625030       -17.0079
 181   2.0000      -0.623140       -16.9565
 182   2.0000      -0.622862       -16.9489
 183   2.0000      -0.617157       -16.7937
 184   2.0000      -0.607392       -16.5280
 185   2.0000      -0.603260       -16.4155
 186   2.0000      -0.600301       -16.3350
 187   2.0000      -0.593761       -16.1571
 188   2.0000      -0.592531       -16.1236
 189   2.0000      -0.590072       -16.0567
 190   2.0000      -0.588131       -16.0039
 191   2.0000      -0.586435       -15.9577
 192   2.0000      -0.583951       -15.8901
 193   2.0000      -0.583904       -15.8888
 194   2.0000      -0.582004       -15.8371
 195   2.0000      -0.580506       -15.7964
 196   2.0000      -0.579811       -15.7775
 197   2.0000      -0.578659       -15.7461
 198   2.0000      -0.577117       -15.7042
 199   2.0000      -0.574263       -15.6265
 200   2.0000      -0.573167       -15.5967
 201   2.0000      -0.571337       -15.5469
 202   2.0000      -0.570280       -15.5181
 203   2.0000      -0.567418       -15.4402
 204   2.0000      -0.564576       -15.3629
 205   2.0000      -0.560034       -15.2393
 206   2.0000      -0.559226       -15.2173
 207   2.0000      -0.554034       -15.0760
 208   2.0000      -0.553482       -15.0610
 209   2.0000      -0.551029       -14.9943
 210   2.0000      -0.549019       -14.9396
 211   2.0000      -0.546449       -14.8696
 212   2.0000      -0.543058       -14.7774
 213   2.0000      -0.539490       -14.6803
 214   2.0000      -0.537804       -14.6344
 215   2.0000      -0.535633       -14.5753
 216   2.0000      -0.534246       -14.5376
 217   2.0000      -0.531369       -14.4593
 218   2.0000      -0.530140       -14.4259
 219   2.0000      -0.529376       -14.4051
 220   2.0000      -0.525052       -14.2874
 221   2.0000      -0.523745       -14.2518
 222   2.0000      -0.523108       -14.2345
 223   2.0000      -0.522075       -14.2064
 224   2.0000      -0.519419       -14.1341
 225   2.0000      -0.516485       -14.0543
 226   2.0000      -0.514887       -14.0108
 227   2.0000      -0.513212       -13.9652
 228   2.0000      -0.510942       -13.9034
 229   2.0000      -0.505519       -13.7559
 230   2.0000      -0.504309       -13.7229
 231   2.0000      -0.501196       -13.6382
 232   2.0000      -0.497598       -13.5403
 233   2.0000      -0.497334       -13.5331
 234   2.0000      -0.492045       -13.3892
 235   2.0000      -0.491055       -13.3623
 236   2.0000      -0.490457       -13.3460
 237   2.0000      -0.489542       -13.3211
 238   2.0000      -0.489048       -13.3077
 239   2.0000      -0.488619       -13.2960
 240   2.0000      -0.487547       -13.2668
 241   2.0000      -0.486689       -13.2435
 242   2.0000      -0.486056       -13.2262
 243   2.0000      -0.480238       -13.0679
 244   2.0000      -0.479671       -13.0525
 245   2.0000      -0.478192       -13.0123
 246   2.0000      -0.477929       -13.0051
 247   2.0000      -0.476005       -12.9527
 248   2.0000      -0.471695       -12.8355
 249   2.0000      -0.469044       -12.7633
 250   2.0000      -0.465707       -12.6725
 251   2.0000      -0.464859       -12.6495
 252   2.0000      -0.464089       -12.6285
 253   2.0000      -0.463844       -12.6218
 254   2.0000      -0.462593       -12.5878
 255   2.0000      -0.459020       -12.4906
 256   2.0000      -0.458334       -12.4719
 257   2.0000      -0.456023       -12.4090
 258   2.0000      -0.453758       -12.3474
 259   2.0000      -0.452727       -12.3193
 260   2.0000      -0.444991       -12.1088
 261   2.0000      -0.443433       -12.0664
 262   2.0000      -0.442913       -12.0523
 263   2.0000      -0.440404       -11.9840
 264   2.0000      -0.438685       -11.9372
 265   2.0000      -0.436646       -11.8817
 266   2.0000      -0.432972       -11.7818
 267   2.0000      -0.431195       -11.7334
 268   2.0000      -0.429804       -11.6956
 269   2.0000      -0.418447       -11.3865
 270   2.0000      -0.403894       -10.9905
 271   2.0000      -0.401014       -10.9121
 272   2.0000      -0.396771       -10.7967
 273   2.0000      -0.385994       -10.5034
 274   2.0000      -0.385605       -10.4928
 275   2.0000      -0.382329       -10.4037
 276   2.0000      -0.379835       -10.3358
 277   2.0000      -0.373999       -10.1770
 278   2.0000      -0.373321       -10.1586
 279   2.0000      -0.371563       -10.1108
 280   2.0000      -0.369964       -10.0672
 281   2.0000      -0.369218       -10.0469
 282   2.0000      -0.364741        -9.9251
 283   2.0000      -0.361092        -9.8258
 284   2.0000      -0.350163        -9.5284
 285   2.0000      -0.345961        -9.4141
 286   2.0000      -0.333553        -9.0764
 287   2.0000      -0.294970        -8.0265
 288   2.0000      -0.271538        -7.3889
 289   0.0000      -0.084369        -2.2958
 290   0.0000      -0.073326        -1.9953
 291   0.0000      -0.047430        -1.2906
 292   0.0000      -0.042694        -1.1618
 293   0.0000      -0.026959        -0.7336

MULLIKEN ATOMIC CHARGES
-----------------------
   0 C :    0.230348
   1 O :   -0.198838
   2 C :   -0.059894
   3 C :   -0.094872
   4 C :    0.242011
   5 C :    0.245621
   6 C :   -0.087529
   7 C :    0.027213
   8 C :    0.293785
   9 C :   -0.386183
  10 C :   -0.123602
  11 N :    0.093893
  12 C :   -0.129849
  13 N :    0.107018
  14 C :   -0.146942
  15 C :   -0.002143
  16 C :    0.233318
  17 O :   -0.203852
  18 C :   -0.060246
  19 C :   -0.091364
  20 C :    0.240607
  21 C :    0.243374
  22 C :   -0.084018
  23 C :    0.026479
  24 C :    0.290104
  25 C :   -0.381560
  26 C :   -0.125631
  27 N :    0.094501
  28 C :   -0.130896
  29 N :    0.110065
  30 C :   -0.149226
  31 C :    0.003396
  32 C :   -0.091512
  33 S :    0.221375
  34 C :   -0.044848
  35 C :    0.026052
  36 C :   -0.052959
  37 C :   -0.080506
  38 C :    0.005133
  39 C :   -0.182733
  40 S :    0.172456
  41 C :   -0.099734
  42 C :   -0.044930
  43 C :   -0.092678
  44 C :   -0.099418
  45 S :    0.230429
  46 C :   -0.080334
  47 C :    0.019622
  48 C :   -0.067666
  49 C :   -0.046104
  50 C :    0.026604
  51 C :   -0.177523
  52 S :    0.226856
  53 C :   -0.089933
  54 C :   -0.065234
  55 C :    0.034233
  56 C :   -0.018877
  57 C :    0.017105
  58 C :   -0.022222
  59 C :    0.034401
  60 C :   -0.016616
  61 C :    0.009424
  62 C :   -0.019177
  63 F :   -0.179987
  64 F :   -0.183756
  65 F :   -0.183597
  66 F :   -0.180393
  67 S :    0.158290
  68 C :   -0.082807
  69 C :   -0.072876
  70 C :   -0.056940
  71 C :    0.276809
  72 N :   -0.376489
  73 C :    0.290387
  74 C :    0.088646
  75 C :   -0.058598
  76 O :   -0.207656
  77 O :   -0.198203
  78 H :    0.040942
  79 H :    0.044397
  80 H :    0.026975
  81 H :    0.040698
  82 H :    0.044949
  83 H :    0.029905
  84 H :    0.029318
  85 H :    0.034513
  86 H :    0.015105
  87 H :    0.034005
  88 H :    0.023761
  89 H :    0.034131
  90 H :    0.031356
  91 H :    0.043135
  92 H :    0.034196
  93 H :    0.025919
  94 H :    0.036445
  95 H :    0.039634
  96 H :    0.038956
  97 H :    0.041568
  98 H :    0.026772
  99 H :    0.031642
 100 H :    0.034124
 101 H :    0.040750
 102 H :    0.037169
 103 H :    0.029296
 104 H :    0.045341
 105 H :    0.039514
 106 H :    0.038866
 107 H :    0.039346
 108 H :    0.058964
 109 H :    0.057766
 110 H :    0.049366
 111 H :    0.046880
 112 H :    0.045688
Sum of atomic charges:   -0.0000000

LOEWDIN ATOMIC CHARGES
----------------------
   0 C :    0.091281
   1 O :   -0.167921
   2 C :   -0.049599
   3 C :   -0.006926
   4 C :    0.073956
   5 C :    0.076881
   6 C :   -0.017797
   7 C :   -0.019037
   8 C :    0.081768
   9 C :   -0.151650
  10 C :   -0.014298
  11 N :   -0.059291
  12 C :   -0.014854
  13 N :   -0.055193
  14 C :   -0.133775
  15 C :    0.064446
  16 C :    0.092078
  17 O :   -0.170039
  18 C :   -0.049769
  19 C :   -0.006965
  20 C :    0.074053
  21 C :    0.077355
  22 C :   -0.017449
  23 C :   -0.018858
  24 C :    0.081232
  25 C :   -0.150115
  26 C :   -0.014559
  27 N :   -0.057749
  28 C :   -0.014933
  29 N :   -0.053956
  30 C :   -0.132695
  31 C :    0.065037
  32 C :   -0.191681
  33 S :    0.508694
  34 C :   -0.171723
  35 C :   -0.043726
  36 C :   -0.006035
  37 C :   -0.194269
  38 C :   -0.023323
  39 C :   -0.038817
  40 S :    0.438193
  41 C :   -0.187865
  42 C :   -0.030483
  43 C :   -0.139811
  44 C :   -0.184925
  45 S :    0.503486
  46 C :   -0.203525
  47 C :   -0.022738
  48 C :   -0.052859
  49 C :   -0.166981
  50 C :   -0.048938
  51 C :   -0.039140
  52 S :    0.513041
  53 C :   -0.193725
  54 C :   -0.009502
  55 C :   -0.012515
  56 C :   -0.060068
  57 C :   -0.016820
  58 C :   -0.058143
  59 C :   -0.011642
  60 C :   -0.059768
  61 C :   -0.016874
  62 C :   -0.057989
  63 F :   -0.047312
  64 F :   -0.049655
  65 F :   -0.049688
  66 F :   -0.047703
  67 S :    0.437121
  68 C :   -0.139867
  69 C :   -0.108064
  70 C :   -0.101254
  71 C :    0.095137
  72 N :   -0.037756
  73 C :    0.105745
  74 C :    0.041318
  75 C :   -0.063589
  76 O :   -0.172708
  77 O :   -0.173288
  78 H :    0.055473
  79 H :    0.053809
  80 H :    0.051978
  81 H :    0.055276
  82 H :    0.053986
  83 H :    0.052479
  84 H :    0.042310
  85 H :    0.035908
  86 H :    0.030358
  87 H :    0.040942
  88 H :    0.023409
  89 H :    0.030633
  90 H :    0.024528
  91 H :    0.033667
  92 H :    0.025759
  93 H :    0.024646
  94 H :    0.025710
  95 H :    0.026560
  96 H :    0.029780
  97 H :    0.028110
  98 H :    0.024822
  99 H :    0.029651
 100 H :    0.025733
 101 H :    0.032749
 102 H :    0.027837
 103 H :    0.026145
 104 H :    0.028725
 105 H :    0.026156
 106 H :    0.030056
 107 H :    0.027286
 108 H :    0.036159
 109 H :    0.035361
 110 H :    0.031396
 111 H :    0.033874
 112 H :    0.030104

  Mayer bond orders larger than 0.100000
B(  0-C ,  1-O ) :   2.1276 B(  0-C ,  2-C ) :   0.9672 B(  0-C , 14-C ) :   0.9875
B(  2-C ,  3-C ) :   1.3448 B(  2-C ,  7-C ) :   1.3463 B(  3-C ,  4-C ) :   1.3257
B(  3-C , 78-H ) :   1.0160 B(  4-C ,  5-C ) :   1.2953 B(  4-C , 65-F ) :   1.1004
B(  5-C ,  6-C ) :   1.3479 B(  5-C , 66-F ) :   1.1138 B(  6-C ,  7-C ) :   1.3355
B(  6-C , 79-H ) :   0.9889 B(  7-C ,  8-C ) :   1.0131 B(  8-C ,  9-C ) :   1.6285
B(  8-C , 14-C ) :   1.1099 B(  9-C , 10-C ) :   1.1360 B(  9-C , 12-C ) :   1.1301
B( 10-C , 11-N ) :   2.9523 B( 12-C , 13-N ) :   2.9725 B( 14-C , 15-C ) :   1.4903
B( 15-C , 53-C ) :   1.3202 B( 15-C , 80-H ) :   0.9394 B( 16-C , 17-O ) :   2.1203
B( 16-C , 18-C ) :   0.9687 B( 16-C , 30-C ) :   0.9895 B( 18-C , 19-C ) :   1.3459
B( 18-C , 23-C ) :   1.3437 B( 19-C , 20-C ) :   1.3263 B( 19-C , 81-H ) :   1.0149
B( 20-C , 21-C ) :   1.2973 B( 20-C , 64-F ) :   1.1000 B( 21-C , 22-C ) :   1.3479
B( 21-C , 63-F ) :   1.1139 B( 22-C , 23-C ) :   1.3365 B( 22-C , 82-H ) :   0.9884
B( 23-C , 24-C ) :   1.0136 B( 24-C , 25-C ) :   1.6310 B( 24-C , 30-C ) :   1.1084
B( 25-C , 26-C ) :   1.1352 B( 25-C , 28-C ) :   1.1297 B( 26-C , 27-N ) :   2.9528
B( 28-C , 29-N ) :   2.9741 B( 30-C , 31-C ) :   1.4926 B( 31-C , 32-C ) :   1.3187
B( 31-C , 83-H ) :   0.9386 B( 32-C , 33-S ) :   1.0695 B( 32-C , 36-C ) :   1.3112
B( 33-S , 34-C ) :   1.1061 B( 34-C , 35-C ) :   1.4225 B( 34-C , 37-C ) :   1.2277
B( 35-C , 36-C ) :   1.4087 B( 35-C , 39-C ) :   0.9241 B( 36-C , 84-H ) :   1.0159
B( 37-C , 38-C ) :   1.5023 B( 37-C , 40-S ) :   1.0957 B( 38-C , 39-C ) :   0.9215
B( 38-C , 42-C ) :   1.3310 B( 39-C , 59-C ) :   1.0140 B( 39-C , 61-C ) :   1.0278
B( 40-S , 41-C ) :   1.1029 B( 41-C , 42-C ) :   1.4745 B( 41-C , 43-C ) :   1.1672
B( 42-C , 85-H ) :   0.9743 B( 43-C , 67-S ) :   1.1157 B( 43-C , 70-C ) :   1.5920
B( 44-C , 45-S ) :   1.1429 B( 44-C , 48-C ) :   1.4149 B( 44-C , 68-C ) :   1.2005
B( 45-S , 46-C ) :   1.0713 B( 46-C , 47-C ) :   1.4903 B( 46-C , 49-C ) :   1.2260
B( 47-C , 48-C ) :   1.3708 B( 47-C , 51-C ) :   0.9336 B( 48-C , 86-H ) :   0.9977
B( 49-C , 50-C ) :   1.4252 B( 49-C , 52-S ) :   1.1132 B( 50-C , 51-C ) :   0.9104
B( 50-C , 54-C ) :   1.4101 B( 51-C , 55-C ) :   1.0158 B( 51-C , 57-C ) :   1.0271
B( 52-S , 53-C ) :   1.0686 B( 53-C , 54-C ) :   1.3121 B( 54-C , 87-H ) :   1.0104
B( 55-C , 56-C ) :   1.1000 B( 55-C , 88-H ) :   0.9443 B( 55-C , 89-H ) :   0.9478
B( 56-C , 90-H ) :   0.9677 B( 56-C , 91-H ) :   0.9668 B( 56-C , 92-H ) :   0.9670
B( 57-C , 58-C ) :   1.0877 B( 57-C , 93-H ) :   0.9493 B( 57-C , 94-H ) :   0.9478
B( 58-C , 95-H ) :   0.9668 B( 58-C , 96-H ) :   0.9706 B( 58-C , 97-H ) :   0.9697
B( 59-C , 60-C ) :   1.0995 B( 59-C , 98-H ) :   0.9450 B( 59-C , 99-H ) :   0.9475
B( 60-C ,100-H ) :   0.9664 B( 60-C ,101-H ) :   0.9667 B( 60-C ,102-H ) :   0.9673
B( 61-C , 62-C ) :   1.0869 B( 61-C ,103-H ) :   0.9492 B( 61-C ,104-H ) :   0.9475
B( 62-C ,105-H ) :   0.9667 B( 62-C ,106-H ) :   0.9708 B( 62-C ,107-H ) :   0.9697
B( 67-S , 68-C ) :   1.1238 B( 68-C , 69-C ) :   1.5521 B( 69-C , 70-C ) :   1.2426
B( 69-C , 71-C ) :   0.9113 B( 70-C , 73-C ) :   0.9084 B( 71-C , 72-N ) :   1.0656
B( 71-C , 77-O ) :   2.1290 B( 72-N , 73-C ) :   1.0813 B( 72-N , 74-C ) :   0.8991
B( 73-C , 76-O ) :   2.0777 B( 74-C , 75-C ) :   1.1114 B( 74-C ,108-H ) :   0.9474
B( 74-C ,109-H ) :   0.9468 B( 75-C ,110-H ) :   0.9709 B( 75-C ,111-H ) :   0.9745
B( 75-C ,112-H ) :   0.9703

-----------------------------------------------------------------------------
         ABSORPTION SPECTRUM VIA TRANSITION ELECTRIC DIPOLE MOMENTS
-----------------------------------------------------------------------------
State   Energy  Wavelength   fosc         T2         TX        TY        TZ
        (cm-1)    (nm)                  (au**2)     (au)      (au)      (au)
-----------------------------------------------------------------------------
   0   17636.8    567.0   3.741952119  69.84820   6.13510  -3.32284  -4.60081
   1   23331.0    428.6   0.496304495   7.00310  -1.76882  -1.71723  -0.96204
   2   29005.3    344.8   0.005910487   0.06708  -0.21166  -0.14396   0.03947
   3   29125.3    343.3   0.022964020   0.25957  -0.36445  -0.30642  -0.18126
   4   30898.6    323.6   0.002434175   0.02594  -0.11758  -0.08549   0.06929
   5   32788.8    305.0   0.250814972   2.51828  -0.93598   0.75800   1.03328
   6   33804.8    295.8   0.011782726   0.11475   0.09541   0.32470   0.01476
   7   34626.6    288.8   0.081880834   0.77848  -0.27017  -0.73805  -0.40096
   8   35978.2    277.9   0.063911810   0.58481  -0.76188   0.00139  -0.06593
   9   36545.7    273.6   0.369356011   3.32724   0.89864   1.48603   0.55805
  10   37860.3    264.1   0.055774644   0.48499   0.53833  -0.41656  -0.14719
  11   38160.7    262.0   0.209122040   1.80409  -0.27040  -1.14184  -0.65359
  12   39606.2    252.5   0.108573491   0.90248   0.09550  -0.86539  -0.38007
  13   40060.8    249.6   0.686679373   5.64300   1.17953   1.88241   0.84156

Dispersion correction           -0.069845881
FINAL SINGLE POINT ENERGY     -5268.421658289480

DIPOLE MOMENT
-------------
                                X             Y             Z
Electronic contribution:     39.54514      15.25276      13.60745
Nuclear contribution   :    -40.57733     -15.92201     -13.96498
                        -----------------------------------------
Total Dipole Moment    :     -1.03219      -0.66925      -0.35753
                        -----------------------------------------
Magnitude (a.u.)       :      1.28107
Magnitude (Debye)      :      3.25622

Rotational constants in cm-1:     0.001554     0.000179     0.000162
Rotational constants in MHz :    46.574289     5.357527     4.855872

                             ****ORCA TERMINATED NORMALLY****
TOTAL RUN TIME: 0 days 0 hours 17 minutes 50 seconds 127 msec
