                         Program Version 4.2.0 -  RELEASE  -
|  1> # ORCA input file
|  2> # SCF done       -196.920394683149          0.000724533111
|  3> ! wb97x-d3 def2-SVP def2/J RIJCOSX Grid4 TightSCF
|  4> %maxcore 5000
|  5> %tddft
|  6>     Mode sTDA
|  7>     Ethresh 5.0
|  8>     maxcore 5000
|  9> end
| 10>
| 11> %pal
| 12>   nprocs 6
| 13>   end
| 14> * xyz 0 1
| 15>    C        1.50897        -3.57395         1.07687
| 16>    O        0.62923        -3.51635         0.23564
| 17>    C        1.38764        -4.17294         2.42184
| 18>    C        0.29261        -4.78019         2.99961
| 19>    C        0.42068        -5.27411         4.29217
| 20>   Cl       -0.91888        -6.03763         5.04892
| 21>    C        1.63427        -5.15131         4.97580
| 22>   Cl        1.78048        -5.76742         6.57277
| 23>    C        2.73542        -4.53662         4.38811
| 24>    C        2.61141        -4.04266         3.10055
| 25>    C        3.56350        -3.35581         2.22689
| 26>    C        4.85354        -3.03537         2.56818
| 27>    C        5.78285        -2.36148         1.74918
| 28>    N        6.59769        -1.81577         1.14990
| 29>    C        5.43963        -3.33687         3.81564
| 30>    N        5.98114        -3.55113         4.80486
| 31>    C        2.88224        -3.07921         0.97939
| 32>    C        3.44845        -2.45776        -0.11075
| 33>    C        2.91381        -2.11094        -1.35190
| 34>    S        1.24266        -2.39153        -1.85259
| 35>    C        1.56162        -1.64068        -3.36800
| 36>    C        2.89693        -1.20966        -3.47628
| 37>    C        3.66669        -1.46377        -2.35167
| 38>    C        5.11944        -1.12731        -2.27087
| 39>    C        5.97952        -2.34311        -2.62759
| 40>    S        3.25890        -0.42821        -5.00333
| 41>    C        1.61410        -0.67144        -5.48560
| 42>    C        0.83752        -1.33515        -4.52224
| 43>    N       -0.44471        -1.49174        -4.97899
| 44>    C       -1.55310        -1.68936        -4.06923
| 45>    C       -0.49972        -0.92023        -6.23074
| 46>    C        0.77016        -0.37394        -6.56690
| 47>    C        0.89919         0.37751        -7.75042
| 48>    N        1.92364         1.03218        -8.30086
| 49>    N        1.40560         1.61290        -9.35256
| 50>    N        0.13209         1.41814        -9.56675
| 51>    C       -0.25055         0.62186        -8.56425
| 52>    C       -1.47326         0.00883        -8.25187
| 53>    C       -1.56807        -0.83589        -7.14443
| 54>    N       -2.80992        -1.49103        -7.07560
| 55>    C       -2.84052        -2.94680        -6.98685
| 56>    C       -2.21117        -3.62441        -8.20337
| 57>    C       -3.60446        -0.91796        -8.09102
| 58>    C       -2.77631         0.06855        -8.89759
| 59>    S       -4.05139         0.86239        -7.84035
| 60>    C       -5.12877        -1.54501        -9.97394
| 61>    C       -4.56829        -1.57838        -8.89731
| 62>    S       -2.86641         0.19715       -10.70716
| 63>    C       -4.61875         0.33862       -11.01943
| 64>    C       -5.40886        -0.95022       -11.27740
| 65>    C       -4.92674        -1.76811       -12.48824
| 66>    C       -3.83123        -2.77740       -12.17250
| 67>    C       -5.20951         1.52517       -10.81253
| 68>    C       -6.63628         1.59956       -10.91832
| 69>    C       -7.56709         2.68233       -10.73196
| 70>    C       -7.27568         3.97659       -10.40019
| 71>    C       -8.24773         4.98538       -10.23449
| 72>    N       -8.99746         5.84211       -10.09152
| 73>    C       -5.96437         4.45736       -10.19138
| 74>    N       -4.92235         4.90438       -10.01883
| 75>    C       -8.90529         2.11870       -10.96384
| 76>    C      -10.16146         2.68271       -10.92649
| 77>    C      -11.26676         1.87168       -11.19560
| 78>   Cl      -12.83604         2.56807       -11.15248
| 79>    C      -11.11193         0.51861       -11.49445
| 80>   Cl      -12.48927        -0.45524       -11.81851
| 81>    C       -9.84435        -0.05864       -11.53401
| 82>    C       -8.75631         0.74544       -11.27043
| 83>    C       -7.33603         0.45102       -11.22960
| 84>    O       -6.82497        -0.73765       -11.47838
| 85>    C       -1.71227        -0.49513        -3.13005
| 86>    C        2.18550         2.47022       -10.19753
| 87>    C        2.07187         3.91927        -9.73303
| 88>    H       -0.63743        -4.86769         2.46062
| 89>    H        3.65309        -4.46140         4.94775
| 90>    H        4.48750        -2.17908        -0.00214
| 91>    H        5.32347        -0.32577        -2.98356
| 92>    H        5.38748        -0.77462        -1.27390
| 93>    H        5.75646        -2.68106        -3.63693
| 94>    H        7.03128        -2.07794        -2.57171
| 95>    H        5.79371        -3.16271        -1.93750
| 96>    H       -2.46877        -1.80222        -4.64694
| 97>    H       -1.36549        -2.59720        -3.48779
| 98>    H       -2.30108        -3.25539        -6.09145
| 99>    H       -3.88859        -3.24091        -6.88662
|100>    H       -1.17013        -3.32336        -8.30369
|101>    H       -2.25278        -4.70351        -8.08354
|102>    H       -2.73917        -3.35363        -9.11503
|103>    H       -5.80297        -2.29192       -12.87738
|104>    H       -4.58087        -1.06842       -13.25200
|105>    H       -4.17340        -3.49161       -11.42651
|106>    H       -3.56991        -3.32057       -13.07689
|107>    H       -2.94052        -2.27926       -11.79942
|108>    H       -4.62286         2.39480       -10.56601
|109>    H      -10.31824         3.72407       -10.69661
|110>    H       -9.72677        -1.10511       -11.76403
|111>    H       -1.87710         0.41428        -3.70398
|112>    H       -2.56640        -0.65698        -2.47901
|113>    H       -0.82779        -0.36718        -2.51200
|114>    H        3.22053         2.12815       -10.14247
|115>    H        1.80399         2.36549       -11.21495
|116>    H        2.43338         4.01514        -8.71210
|117>    H        2.66534         4.56137       -10.37722
|118>    H        1.03480         4.24285        -9.77226
|119> *
|120>
|121>                          ****END OF INPUT****

CARTESIAN COORDINATES (ANGSTROEM)
---------------------------------
  C      1.508970   -3.573950    1.076870
  O      0.629230   -3.516350    0.235640
  C      1.387640   -4.172940    2.421840
  C      0.292610   -4.780190    2.999610
  C      0.420680   -5.274110    4.292170
  Cl    -0.918880   -6.037630    5.048920
  C      1.634270   -5.151310    4.975800
  Cl     1.780480   -5.767420    6.572770
  C      2.735420   -4.536620    4.388110
  C      2.611410   -4.042660    3.100550
  C      3.563500   -3.355810    2.226890
  C      4.853540   -3.035370    2.568180
  C      5.782850   -2.361480    1.749180
  N      6.597690   -1.815770    1.149900
  C      5.439630   -3.336870    3.815640
  N      5.981140   -3.551130    4.804860
  C      2.882240   -3.079210    0.979390
  C      3.448450   -2.457760   -0.110750
  C      2.913810   -2.110940   -1.351900
  S      1.242660   -2.391530   -1.852590
  C      1.561620   -1.640680   -3.368000
  C      2.896930   -1.209660   -3.476280
  C      3.666690   -1.463770   -2.351670
  C      5.119440   -1.127310   -2.270870
  C      5.979520   -2.343110   -2.627590
  S      3.258900   -0.428210   -5.003330
  C      1.614100   -0.671440   -5.485600
  C      0.837520   -1.335150   -4.522240
  N     -0.444710   -1.491740   -4.978990
  C     -1.553100   -1.689360   -4.069230
  C     -0.499720   -0.920230   -6.230740
  C      0.770160   -0.373940   -6.566900
  C      0.899190    0.377510   -7.750420
  N      1.923640    1.032180   -8.300860
  N      1.405600    1.612900   -9.352560
  N      0.132090    1.418140   -9.566750
  C     -0.250550    0.621860   -8.564250
  C     -1.473260    0.008830   -8.251870
  C     -1.568070   -0.835890   -7.144430
  N     -2.809920   -1.491030   -7.075600
  C     -2.840520   -2.946800   -6.986850
  C     -2.211170   -3.624410   -8.203370
  C     -3.604460   -0.917960   -8.091020
  C     -2.776310    0.068550   -8.897590
  S     -4.051390    0.862390   -7.840350
  C     -5.128770   -1.545010   -9.973940
  C     -4.568290   -1.578380   -8.897310
  S     -2.866410    0.197150  -10.707160
  C     -4.618750    0.338620  -11.019430
  C     -5.408860   -0.950220  -11.277400
  C     -4.926740   -1.768110  -12.488240
  C     -3.831230   -2.777400  -12.172500
  C     -5.209510    1.525170  -10.812530
  C     -6.636280    1.599560  -10.918320
  C     -7.567090    2.682330  -10.731960
  C     -7.275680    3.976590  -10.400190
  C     -8.247730    4.985380  -10.234490
  N     -8.997460    5.842110  -10.091520
  C     -5.964370    4.457360  -10.191380
  N     -4.922350    4.904380  -10.018830
  C     -8.905290    2.118700  -10.963840
  C    -10.161460    2.682710  -10.926490
  C    -11.266760    1.871680  -11.195600
  Cl   -12.836040    2.568070  -11.152480
  C    -11.111930    0.518610  -11.494450
  Cl   -12.489270   -0.455240  -11.818510
  C     -9.844350   -0.058640  -11.534010
  C     -8.756310    0.745440  -11.270430
  C     -7.336030    0.451020  -11.229600
  O     -6.824970   -0.737650  -11.478380
  C     -1.712270   -0.495130   -3.130050
  C      2.185500    2.470220  -10.197530
  C      2.071870    3.919270   -9.733030
  H     -0.637430   -4.867690    2.460620
  H      3.653090   -4.461400    4.947750
  H      4.487500   -2.179080   -0.002140
  H      5.323470   -0.325770   -2.983560
  H      5.387480   -0.774620   -1.273900
  H      5.756460   -2.681060   -3.636930
  H      7.031280   -2.077940   -2.571710
  H      5.793710   -3.162710   -1.937500
  H     -2.468770   -1.802220   -4.646940
  H     -1.365490   -2.597200   -3.487790
  H     -2.301080   -3.255390   -6.091450
  H     -3.888590   -3.240910   -6.886620
  H     -1.170130   -3.323360   -8.303690
  H     -2.252780   -4.703510   -8.083540
  H     -2.739170   -3.353630   -9.115030
  H     -5.802970   -2.291920  -12.877380
  H     -4.580870   -1.068420  -13.252000
  H     -4.173400   -3.491610  -11.426510
  H     -3.569910   -3.320570  -13.076890
  H     -2.940520   -2.279260  -11.799420
  H     -4.622860    2.394800  -10.566010
  H    -10.318240    3.724070  -10.696610
  H     -9.726770   -1.105110  -11.764030
  H     -1.877100    0.414280   -3.703980
  H     -2.566400   -0.656980   -2.479010
  H     -0.827790   -0.367180   -2.512000
  H      3.220530    2.128150  -10.142470
  H      1.803990    2.365490  -11.214950
  H      2.433380    4.015140   -8.712100
  H      2.665340    4.561370  -10.377220
  H      1.034800    4.242850   -9.772260

 Total Charge           Charge          ....    0
 Multiplicity           Mult            ....    1
 Number of Electrons    NEL             ....  566
 Basis Dimension        Dim             .... 1209

ORBITAL ENERGIES
----------------

  NO   OCC          E(Eh)            E(eV)
   0   2.0000    -101.627908     -2765.4360
   1   2.0000    -101.625293     -2765.3648
   2   2.0000    -101.625269     -2765.3642
   3   2.0000    -101.622964     -2765.3014
   4   2.0000     -88.991054     -2421.5697
   5   2.0000     -88.988049     -2421.4879
   6   2.0000     -88.967384     -2420.9256
   7   2.0000     -88.949172     -2420.4300
   8   2.0000     -19.341861      -526.3188
   9   2.0000     -19.259539      -524.0787
  10   2.0000     -14.564531      -396.3210
  11   2.0000     -14.512733      -394.9115
  12   2.0000     -14.487449      -394.2235
  13   2.0000     -14.472993      -393.8302
  14   2.0000     -14.472236      -393.8096
  15   2.0000     -14.457179      -393.3998
  16   2.0000     -14.455827      -393.3630
  17   2.0000     -14.455472      -393.3534
  18   2.0000     -14.448383      -393.1605
  19   2.0000     -10.427421      -283.7446
  20   2.0000     -10.419694      -283.5343
  21   2.0000     -10.409311      -283.2518
  22   2.0000     -10.406840      -283.1845
  23   2.0000     -10.393144      -282.8118
  24   2.0000     -10.391406      -282.7645
  25   2.0000     -10.391131      -282.7571
  26   2.0000     -10.390443      -282.7383
  27   2.0000     -10.388672      -282.6901
  28   2.0000     -10.386961      -282.6436
  29   2.0000     -10.384950      -282.5889
  30   2.0000     -10.380937      -282.4797
  31   2.0000     -10.376376      -282.3555
  32   2.0000     -10.362563      -281.9797
  33   2.0000     -10.361589      -281.9532
  34   2.0000     -10.359781      -281.9040
  35   2.0000     -10.357074      -281.8303
  36   2.0000     -10.356942      -281.8267
  37   2.0000     -10.355922      -281.7990
  38   2.0000     -10.355571      -281.7894
  39   2.0000     -10.353714      -281.7389
  40   2.0000     -10.352996      -281.7194
  41   2.0000     -10.352747      -281.7126
  42   2.0000     -10.352744      -281.7125
  43   2.0000     -10.350912      -281.6626
  44   2.0000     -10.350770      -281.6588
  45   2.0000     -10.349892      -281.6349
  46   2.0000     -10.349880      -281.6346
  47   2.0000     -10.349510      -281.6245
  48   2.0000     -10.349311      -281.6191
  49   2.0000     -10.348650      -281.6011
  50   2.0000     -10.347361      -281.5660
  51   2.0000     -10.345936      -281.5272
  52   2.0000     -10.343221      -281.4533
  53   2.0000     -10.342573      -281.4357
  54   2.0000     -10.342413      -281.4314
  55   2.0000     -10.342255      -281.4271
  56   2.0000     -10.338241      -281.3178
  57   2.0000     -10.334928      -281.2277
  58   2.0000     -10.334762      -281.2232
  59   2.0000     -10.334362      -281.2123
  60   2.0000     -10.331302      -281.1290
  61   2.0000     -10.328610      -281.0558
  62   2.0000     -10.327740      -281.0321
  63   2.0000     -10.327285      -281.0197
  64   2.0000     -10.326496      -280.9982
  65   2.0000     -10.325372      -280.9677
  66   2.0000     -10.319581      -280.8101
  67   2.0000     -10.316993      -280.7396
  68   2.0000     -10.299943      -280.2757
  69   2.0000     -10.298214      -280.2287
  70   2.0000     -10.297866      -280.2192
  71   2.0000     -10.296356      -280.1781
  72   2.0000     -10.295254      -280.1481
  73   2.0000      -9.604714      -261.3576
  74   2.0000      -9.602064      -261.2854
  75   2.0000      -9.602025      -261.2844
  76   2.0000      -9.599782      -261.2234
  77   2.0000      -8.102234      -220.4730
  78   2.0000      -8.100856      -220.4355
  79   2.0000      -8.079608      -219.8573
  80   2.0000      -8.062796      -219.3998
  81   2.0000      -7.364729      -200.4045
  82   2.0000      -7.362076      -200.3323
  83   2.0000      -7.362065      -200.3320
  84   2.0000      -7.359818      -200.2708
  85   2.0000      -7.354722      -200.1321
  86   2.0000      -7.354115      -200.1157
  87   2.0000      -7.352107      -200.0610
  88   2.0000      -7.352029      -200.0589
  89   2.0000      -7.351439      -200.0428
  90   2.0000      -7.351411      -200.0420
  91   2.0000      -7.349800      -199.9982
  92   2.0000      -7.349143      -199.9803
  93   2.0000      -6.062285      -164.9632
  94   2.0000      -6.060935      -164.9264
  95   2.0000      -6.057633      -164.8366
  96   2.0000      -6.056990      -164.8191
  97   2.0000      -6.053918      -164.7355
  98   2.0000      -6.051881      -164.6801
  99   2.0000      -6.040624      -164.3737
 100   2.0000      -6.036397      -164.2587
 101   2.0000      -6.028957      -164.0563
 102   2.0000      -6.023882      -163.9182
 103   2.0000      -6.019743      -163.8055
 104   2.0000      -6.011555      -163.5827
 105   2.0000      -1.251353       -34.0511
 106   2.0000      -1.249606       -34.0035
 107   2.0000      -1.177295       -32.0358
 108   2.0000      -1.147043       -31.2126
 109   2.0000      -1.132159       -30.8076
 110   2.0000      -1.076256       -29.2864
 111   2.0000      -1.069022       -29.0896
 112   2.0000      -1.058110       -28.7926
 113   2.0000      -1.055099       -28.7107
 114   2.0000      -1.049888       -28.5689
 115   2.0000      -1.041086       -28.3294
 116   2.0000      -1.037180       -28.2231
 117   2.0000      -1.033585       -28.1253
 118   2.0000      -1.028842       -27.9962
 119   2.0000      -1.025353       -27.9013
 120   2.0000      -1.021431       -27.7945
 121   2.0000      -1.013401       -27.5760
 122   2.0000      -1.000331       -27.2204
 123   2.0000      -0.997415       -27.1411
 124   2.0000      -0.993503       -27.0346
 125   2.0000      -0.992503       -27.0074
 126   2.0000      -0.973182       -26.4816
 127   2.0000      -0.971016       -26.4227
 128   2.0000      -0.964184       -26.2368
 129   2.0000      -0.961084       -26.1524
 130   2.0000      -0.944132       -25.6911
 131   2.0000      -0.935197       -25.4480
 132   2.0000      -0.932489       -25.3743
 133   2.0000      -0.923236       -25.1225
 134   2.0000      -0.907427       -24.6923
 135   2.0000      -0.905542       -24.6410
 136   2.0000      -0.902284       -24.5524
 137   2.0000      -0.898311       -24.4443
 138   2.0000      -0.894908       -24.3517
 139   2.0000      -0.885080       -24.0842
 140   2.0000      -0.879260       -23.9259
 141   2.0000      -0.870658       -23.6918
 142   2.0000      -0.858351       -23.3569
 143   2.0000      -0.855641       -23.2832
 144   2.0000      -0.847591       -23.0641
 145   2.0000      -0.836443       -22.7608
 146   2.0000      -0.832890       -22.6641
 147   2.0000      -0.817550       -22.2467
 148   2.0000      -0.813461       -22.1354
 149   2.0000      -0.805583       -21.9210
 150   2.0000      -0.800703       -21.7882
 151   2.0000      -0.786679       -21.4066
 152   2.0000      -0.781889       -21.2763
 153   2.0000      -0.776168       -21.1206
 154   2.0000      -0.770015       -20.9532
 155   2.0000      -0.760314       -20.6892
 156   2.0000      -0.756600       -20.5881
 157   2.0000      -0.752959       -20.4891
 158   2.0000      -0.746780       -20.3209
 159   2.0000      -0.742205       -20.1964
 160   2.0000      -0.738785       -20.1034
 161   2.0000      -0.734599       -19.9895
 162   2.0000      -0.732379       -19.9290
 163   2.0000      -0.724447       -19.7132
 164   2.0000      -0.712491       -19.3879
 165   2.0000      -0.709402       -19.3038
 166   2.0000      -0.697129       -18.9698
 167   2.0000      -0.689512       -18.7626
 168   2.0000      -0.681327       -18.5399
 169   2.0000      -0.678429       -18.4610
 170   2.0000      -0.673028       -18.3140
 171   2.0000      -0.668167       -18.1817
 172   2.0000      -0.659867       -17.9559
 173   2.0000      -0.657402       -17.8888
 174   2.0000      -0.653377       -17.7793
 175   2.0000      -0.647769       -17.6267
 176   2.0000      -0.639792       -17.4096
 177   2.0000      -0.633751       -17.2452
 178   2.0000      -0.631176       -17.1752
 179   2.0000      -0.629250       -17.1228
 180   2.0000      -0.621883       -16.9223
 181   2.0000      -0.620290       -16.8789
 182   2.0000      -0.619028       -16.8446
 183   2.0000      -0.608088       -16.5469
 184   2.0000      -0.601611       -16.3707
 185   2.0000      -0.600545       -16.3417
 186   2.0000      -0.597345       -16.2546
 187   2.0000      -0.594644       -16.1811
 188   2.0000      -0.590251       -16.0616
 189   2.0000      -0.586753       -15.9664
 190   2.0000      -0.584243       -15.8981
 191   2.0000      -0.583728       -15.8840
 192   2.0000      -0.582958       -15.8631
 193   2.0000      -0.581879       -15.8337
 194   2.0000      -0.579411       -15.7666
 195   2.0000      -0.577573       -15.7166
 196   2.0000      -0.574688       -15.6380
 197   2.0000      -0.571344       -15.5471
 198   2.0000      -0.566711       -15.4210
 199   2.0000      -0.565920       -15.3995
 200   2.0000      -0.560921       -15.2634
 201   2.0000      -0.559965       -15.2374
 202   2.0000      -0.556872       -15.1533
 203   2.0000      -0.554317       -15.0837
 204   2.0000      -0.551764       -15.0143
 205   2.0000      -0.547365       -14.8946
 206   2.0000      -0.546105       -14.8603
 207   2.0000      -0.544423       -14.8145
 208   2.0000      -0.542209       -14.7542
 209   2.0000      -0.539418       -14.6783
 210   2.0000      -0.534989       -14.5578
 211   2.0000      -0.534211       -14.5366
 212   2.0000      -0.531151       -14.4534
 213   2.0000      -0.526896       -14.3376
 214   2.0000      -0.522385       -14.2148
 215   2.0000      -0.521104       -14.1800
 216   2.0000      -0.518022       -14.0961
 217   2.0000      -0.516912       -14.0659
 218   2.0000      -0.509442       -13.8626
 219   2.0000      -0.507299       -13.8043
 220   2.0000      -0.505385       -13.7522
 221   2.0000      -0.503784       -13.7087
 222   2.0000      -0.501668       -13.6511
 223   2.0000      -0.499409       -13.5896
 224   2.0000      -0.496293       -13.5048
 225   2.0000      -0.493300       -13.4234
 226   2.0000      -0.490403       -13.3445
 227   2.0000      -0.488970       -13.3056
 228   2.0000      -0.488537       -13.2938
 229   2.0000      -0.487243       -13.2586
 230   2.0000      -0.485943       -13.2232
 231   2.0000      -0.484569       -13.1858
 232   2.0000      -0.483110       -13.1461
 233   2.0000      -0.482170       -13.1205
 234   2.0000      -0.479625       -13.0513
 235   2.0000      -0.478615       -13.0238
 236   2.0000      -0.478056       -13.0086
 237   2.0000      -0.473796       -12.8926
 238   2.0000      -0.473140       -12.8748
 239   2.0000      -0.469639       -12.7795
 240   2.0000      -0.469386       -12.7726
 241   2.0000      -0.467864       -12.7312
 242   2.0000      -0.466909       -12.7052
 243   2.0000      -0.465308       -12.6617
 244   2.0000      -0.464622       -12.6430
 245   2.0000      -0.463520       -12.6130
 246   2.0000      -0.462723       -12.5913
 247   2.0000      -0.461766       -12.5653
 248   2.0000      -0.460213       -12.5230
 249   2.0000      -0.457586       -12.4516
 250   2.0000      -0.454516       -12.3680
 251   2.0000      -0.453157       -12.3310
 252   2.0000      -0.448416       -12.2020
 253   2.0000      -0.447311       -12.1719
 254   2.0000      -0.443266       -12.0619
 255   2.0000      -0.440867       -11.9966
 256   2.0000      -0.440374       -11.9832
 257   2.0000      -0.436583       -11.8800
 258   2.0000      -0.436095       -11.8668
 259   2.0000      -0.431359       -11.7379
 260   2.0000      -0.422267       -11.4905
 261   2.0000      -0.420806       -11.4507
 262   2.0000      -0.417128       -11.3506
 263   2.0000      -0.414749       -11.2859
 264   2.0000      -0.410270       -11.1640
 265   2.0000      -0.404302       -11.0016
 266   2.0000      -0.402223       -10.9450
 267   2.0000      -0.395672       -10.7668
 268   2.0000      -0.389310       -10.5937
 269   2.0000      -0.378855       -10.3092
 270   2.0000      -0.377837       -10.2815
 271   2.0000      -0.371795       -10.1171
 272   2.0000      -0.369997       -10.0681
 273   2.0000      -0.357634        -9.7317
 274   2.0000      -0.350404        -9.5350
 275   2.0000      -0.346741        -9.4353
 276   2.0000      -0.342852        -9.3295
 277   2.0000      -0.336548        -9.1579
 278   2.0000      -0.333176        -9.0662
 279   2.0000      -0.317884        -8.6501
 280   2.0000      -0.305925        -8.3247
 281   2.0000      -0.299903        -8.1608
 282   2.0000      -0.276537        -7.5250
 283   0.0000      -0.074224        -2.0197
 284   0.0000      -0.072097        -1.9619
 285   0.0000      -0.043666        -1.1882
 286   0.0000      -0.016602        -0.4518
 287   0.0000      -0.003952        -0.1075

MULLIKEN ATOMIC CHARGES
-----------------------
   0 C :    0.230738
   1 O :   -0.200831
   2 C :   -0.059255
   3 C :   -0.013576
   4 C :    0.041868
   5 Cl:   -0.047212
   6 C :    0.033210
   7 Cl:   -0.038777
   8 C :   -0.002516
   9 C :    0.010351
  10 C :    0.296698
  11 C :   -0.386961
  12 C :   -0.118013
  13 N :    0.095697
  14 C :   -0.129989
  15 N :    0.107716
  16 C :   -0.153628
  17 C :    0.003558
  18 C :   -0.106541
  19 S :    0.198442
  20 C :   -0.021358
  21 C :   -0.086201
  22 C :   -0.086990
  23 C :    0.003569
  24 C :   -0.013807
  25 S :    0.194971
  26 C :   -0.068145
  27 C :    0.040283
  28 N :   -0.245996
  29 C :    0.028613
  30 C :    0.074094
  31 C :   -0.100133
  32 C :   -0.007957
  33 N :   -0.065115
  34 N :   -0.116273
  35 N :   -0.067338
  36 C :   -0.025044
  37 C :    0.101483
  38 C :    0.041234
  39 N :   -0.248734
  40 C :    0.048036
  41 C :   -0.035078
  42 C :   -0.109478
  43 C :   -0.297996
  44 S :    0.067859
  45 C :   -0.024779
  46 C :    0.053203
  47 S :    0.116181
  48 C :   -0.271056
  49 C :    0.113751
  50 C :    0.015138
  51 C :   -0.024295
  52 C :    0.205519
  53 C :   -0.153681
  54 C :    0.279236
  55 C :   -0.356453
  56 C :   -0.132808
  57 N :    0.121450
  58 C :   -0.132296
  59 N :    0.123220
  60 C :   -0.000317
  61 C :    0.001426
  62 C :    0.023465
  63 Cl:   -0.040294
  64 C :    0.036106
  65 Cl:   -0.049439
  66 C :   -0.016373
  67 C :   -0.002997
  68 C :    0.241770
  69 O :   -0.269197
  70 C :   -0.036246
  71 C :    0.107699
  72 C :   -0.062883
  73 H :    0.027261
  74 H :    0.028385
  75 H :   -0.008547
  76 H :    0.040120
  77 H :    0.061569
  78 H :    0.035192
  79 H :    0.056451
  80 H :    0.033506
  81 H :    0.069871
  82 H :    0.058358
  83 H :    0.048018
  84 H :    0.055020
  85 H :    0.050528
  86 H :    0.044978
  87 H :    0.037300
  88 H :    0.049837
  89 H :    0.043437
  90 H :    0.044954
  91 H :    0.038135
  92 H :    0.050693
  93 H :    0.028895
  94 H :    0.027562
  95 H :    0.022116
  96 H :    0.053455
  97 H :    0.049321
  98 H :    0.046810
  99 H :    0.058259
 100 H :    0.060976
 101 H :    0.049501
 102 H :    0.048790
 103 H :    0.058720
Sum of atomic charges:   -0.0000000

LOEWDIN ATOMIC CHARGES
----------------------
   0 C :    0.091569
   1 O :   -0.169412
   2 C :   -0.046753
   3 C :   -0.000223
   4 C :   -0.134995
   5 Cl:    0.152140
   6 C :   -0.131056
   7 Cl:    0.155888
   8 C :   -0.010097
   9 C :   -0.016813
  10 C :    0.081937
  11 C :   -0.153494
  12 C :   -0.011936
  13 N :   -0.060525
  14 C :   -0.015602
  15 N :   -0.054855
  16 C :   -0.135484
  17 C :    0.067808
  18 C :   -0.196522
  19 S :    0.474174
  20 C :   -0.188996
  21 C :   -0.198491
  22 C :   -0.006222
  23 C :   -0.034330
  24 C :   -0.044419
  25 S :    0.408170
  26 C :   -0.171776
  27 C :   -0.040893
  28 N :    0.032542
  29 C :    0.034773
  30 C :    0.012592
  31 C :   -0.068390
  32 C :   -0.057399
  33 N :   -0.094378
  34 N :    0.147234
  35 N :   -0.089721
  36 C :   -0.061033
  37 C :   -0.081709
  38 C :    0.016744
  39 N :   -0.056506
  40 C :    0.032587
  41 C :   -0.070202
  42 C :   -0.073772
  43 C :   -0.213690
  44 S :    0.178281
  45 C :   -0.027436
  46 C :   -0.069065
  47 S :    0.337083
  48 C :   -0.180868
  49 C :    0.055050
  50 C :   -0.030817
  51 C :   -0.061059
  52 C :    0.003730
  53 C :   -0.120998
  54 C :    0.081078
  55 C :   -0.125917
  56 C :   -0.014421
  57 N :   -0.043123
  58 C :   -0.013953
  59 N :   -0.040091
  60 C :   -0.014032
  61 C :   -0.005751
  62 C :   -0.138500
  63 Cl:    0.155692
  64 C :   -0.137741
  65 Cl:    0.151203
  66 C :   -0.012079
  67 C :   -0.031647
  68 C :    0.125387
  69 O :   -0.035407
  70 C :   -0.061310
  71 C :    0.034178
  72 C :   -0.059684
  73 H :    0.048843
  74 H :    0.047168
  75 H :    0.047362
  76 H :    0.034336
  77 H :    0.039861
  78 H :    0.027974
  79 H :    0.035589
  80 H :    0.025896
  81 H :    0.034343
  82 H :    0.028614
  83 H :    0.025743
  84 H :    0.032598
  85 H :    0.032159
  86 H :    0.034288
  87 H :    0.028547
  88 H :    0.036035
  89 H :    0.034881
  90 H :    0.026943
  91 H :    0.031761
  92 H :    0.016586
  93 H :    0.043074
  94 H :    0.047692
  95 H :    0.046818
  96 H :    0.035068
  97 H :    0.036106
  98 H :    0.024180
  99 H :    0.038399
 100 H :    0.039390
 101 H :    0.033100
 102 H :    0.034433
 103 H :    0.035966

  Mayer bond orders larger than 0.100000
B(  0-C ,  1-O ) :   2.1264 B(  0-C ,  2-C ) :   0.9591 B(  0-C , 16-C ) :   0.9838
B(  2-C ,  3-C ) :   1.3748 B(  2-C ,  9-C ) :   1.3350 B(  3-C ,  4-C ) :   1.3489
B(  3-C , 73-H ) :   1.0126 B(  4-C ,  5-Cl) :   1.0511 B(  4-C ,  6-C ) :   1.4118
B(  6-C ,  7-Cl) :   1.0799 B(  6-C ,  8-C ) :   1.3676 B(  8-C ,  9-C ) :   1.3725
B(  8-C , 74-H ) :   0.9838 B(  9-C , 10-C ) :   0.9983 B( 10-C , 11-C ) :   1.6252
B( 10-C , 16-C ) :   1.1112 B( 11-C , 12-C ) :   1.1418 B( 11-C , 14-C ) :   1.1322
B( 12-C , 13-N ) :   2.9519 B( 14-C , 15-N ) :   2.9668 B( 16-C , 17-C ) :   1.5052
B( 17-C , 18-C ) :   1.3339 B( 17-C , 75-H ) :   0.9265 B( 18-C , 19-S ) :   1.0363
B( 18-C , 22-C ) :   1.3785 B( 19-S , 20-C ) :   1.0365 B( 20-C , 21-C ) :   1.4043
B( 20-C , 27-C ) :   1.3215 B( 21-C , 22-C ) :   1.4561 B( 21-C , 25-S ) :   1.0226
B( 22-C , 23-C ) :   1.0533 B( 23-C , 24-C ) :   1.0898 B( 23-C , 76-H ) :   0.9326
B( 23-C , 77-H ) :   0.9130 B( 24-C , 78-H ) :   0.9698 B( 24-C , 79-H ) :   0.9711
B( 24-C , 80-H ) :   0.9728 B( 25-S , 26-C ) :   1.0143 B( 26-C , 27-C ) :   1.4279
B( 26-C , 31-C ) :   1.3565 B( 27-C , 28-N ) :   1.1471 B( 28-N , 29-C ) :   0.9287
B( 28-N , 30-C ) :   1.1585 B( 29-C , 70-C ) :   1.0965 B( 29-C , 81-H ) :   0.9453
B( 29-C , 82-H ) :   0.9515 B( 30-C , 31-C ) :   1.3745 B( 30-C , 38-C ) :   1.2205
B( 31-C , 32-C ) :   1.1378 B( 32-C , 33-N ) :   1.5393 B( 32-C , 36-C ) :   1.2266
B( 33-N , 34-N ) :   1.2184 B( 33-N , 35-N ) :   0.1519 B( 34-N , 35-N ) :   1.2207
B( 34-N , 71-C ) :   0.9133 B( 35-N , 36-C ) :   1.5035 B( 36-C , 37-C ) :   1.1946
B( 37-C , 38-C ) :   1.5183 B( 37-C , 43-C ) :   0.9747 B( 38-C , 39-N ) :   1.0534
B( 39-N , 40-C ) :   0.9543 B( 39-N , 42-C ) :   1.0212 B( 40-C , 41-C ) :   1.0983
B( 40-C , 83-H ) :   0.9533 B( 40-C , 84-H ) :   0.9488 B( 41-C , 85-H ) :   0.9612
B( 41-C , 86-H ) :   0.9648 B( 41-C , 87-H ) :   0.9614 B( 42-C , 43-C ) :   0.8551
B( 42-C , 44-S ) :   0.9728 B( 42-C , 46-C ) :   1.0411 B( 43-C , 44-S ) :   0.9760
B( 43-C , 47-S ) :   0.9716 B( 45-C , 46-C ) :   2.7764 B( 45-C , 49-C ) :   0.9047
B( 47-S , 48-C ) :   1.0858 B( 48-C , 49-C ) :   0.9903 B( 48-C , 52-C ) :   1.7289
B( 49-C , 50-C ) :   1.0112 B( 49-C , 69-O ) :   0.8944 B( 50-C , 51-C ) :   1.1182
B( 50-C , 88-H ) :   0.9308 B( 50-C , 89-H ) :   0.9471 B( 51-C , 90-H ) :   0.9498
B( 51-C , 91-H ) :   0.9604 B( 51-C , 92-H ) :   0.9587 B( 52-C , 53-C ) :   1.0909
B( 52-C , 93-H ) :   0.9618 B( 53-C , 54-C ) :   1.0926 B( 53-C , 68-C ) :   1.4824
B( 54-C , 55-C ) :   1.6703 B( 54-C , 60-C ) :   0.9813 B( 55-C , 56-C ) :   1.1304
B( 55-C , 58-C ) :   1.1321 B( 56-C , 57-N ) :   2.9754 B( 58-C , 59-N ) :   2.9760
B( 60-C , 61-C ) :   1.4321 B( 60-C , 67-C ) :   1.3077 B( 61-C , 62-C ) :   1.3204
B( 61-C , 94-H ) :   0.9860 B( 62-C , 63-Cl) :   1.0743 B( 62-C , 64-C ) :   1.4527
B( 64-C , 65-Cl) :   1.0452 B( 64-C , 66-C ) :   1.3215 B( 66-C , 67-C ) :   1.3831
B( 66-C , 95-H ) :   1.0122 B( 67-C , 68-C ) :   1.0336 B( 68-C , 69-O ) :   1.2625
B( 70-C , 96-H ) :   0.9686 B( 70-C , 97-H ) :   0.9688 B( 70-C , 98-H ) :   0.9634
B( 71-C , 72-C ) :   1.0999 B( 71-C , 99-H ) :   0.9501 B( 71-C ,100-H ) :   0.9502
B( 72-C ,101-H ) :   0.9704 B( 72-C ,102-H ) :   0.9725 B( 72-C ,103-H ) :   0.9702

-----------------------------------------------------------------------------
         ABSORPTION SPECTRUM VIA TRANSITION ELECTRIC DIPOLE MOMENTS
-----------------------------------------------------------------------------
State   Energy  Wavelength   fosc         T2         TX        TY        TZ
        (cm-1)    (nm)                  (au**2)     (au)      (au)      (au)
-----------------------------------------------------------------------------
   0   19653.6    508.8   0.087243959   1.46140  -1.00227  -0.34631  -0.58046
   1   22502.3    444.4   2.392685682  35.00529   2.14572  -1.93196   5.16417
   2   28333.3    352.9   0.150778147   1.75193   0.64721  -0.47538   1.05217
   3   28733.7    348.0   0.139676577   1.60032  -1.21764  -0.34082  -0.03889
   4   30661.7    326.1   0.002631195   0.02825   0.14311  -0.06115   0.06349
   5   31144.1    321.1   0.002608652   0.02758  -0.15304   0.05208   0.03797
   6   31772.7    314.7   0.447501563   4.63677  -0.64260   2.02530   0.34928
   7   32766.4    305.2   0.022583255   0.22690   0.14353  -0.26750   0.36707
   8   33943.4    294.6   0.397299567   3.85334   1.75251   0.82451   0.31974
   9   34743.5    287.8   0.472275257   4.47505   1.95271   0.67388   0.45591
  10   35314.0    283.2   0.214408895   1.99881   1.32495   0.49258  -0.02605
  11   35511.5    281.6   0.029645425   0.27483  -0.51349  -0.09949   0.03552
  12   36144.4    276.7   0.024449034   0.22269   0.16406   0.33824  -0.28524
  13   36559.0    273.5   0.021602856   0.19453   0.28517  -0.06016   0.33105
  14   36668.4    272.7   0.024088681   0.21627  -0.27660  -0.36632  -0.07463
  15   37078.9    269.7   0.359288443   3.19001  -1.35326  -1.14000   0.24308
  16   37422.6    267.2   0.366218888   3.22168   1.73492  -0.07130  -0.45458
  17   38066.7    262.7   0.076166053   0.65871   0.29862  -0.75394  -0.03334
  18   38559.9    259.3   0.124838542   1.06583   0.02408   0.99795   0.26333
  19   39369.0    254.0   0.091535384   0.76544   0.51599   0.15267   0.68984
  20   40273.7    248.3   0.056556482   0.46231  -0.29063   0.51509  -0.33546
  21   40314.6    248.0   0.257243263   2.10067  -1.05965  -0.70878   0.68953

Dispersion correction           -0.071340893
FINAL SINGLE POINT ENERGY     -6149.143506315599

DIPOLE MOMENT
-------------
                                X             Y             Z
Electronic contribution:    -61.54103      -4.33347      47.11987
Nuclear contribution   :     60.45460       2.19652     -49.81051
                        -----------------------------------------
Total Dipole Moment    :     -1.08643      -2.13695      -2.69065
                        -----------------------------------------
Magnitude (a.u.)       :      3.60367
Magnitude (Debye)      :      9.15981

Rotational constants in cm-1:     0.001316     0.000260     0.000232
Rotational constants in MHz :    39.456249     7.793664     6.955367

                             ****ORCA TERMINATED NORMALLY****
TOTAL RUN TIME: 0 days 0 hours 11 minutes 38 seconds 501 msec
