                         Program Version 4.2.0 -  RELEASE  -
|  1> # ORCA input file
|  2> # SCF done       -199.350952670186          0.000869818472
|  3> ! wb97x-d3 def2-SVP def2/J RIJCOSX Grid4 TightSCF
|  4> %maxcore 5000
|  5> %tddft
|  6>     Mode sTDA
|  7>     Ethresh 5.0
|  8>     maxcore 5000
|  9> end
| 10>
| 11> %pal
| 12>   nprocs 6
| 13>   end
| 14> * xyz 0 1
| 15>    C       -0.39224         0.52573         0.59959
| 16>    O       -0.40347         1.73775         0.47327
| 17>    C       -0.99723        -0.23918         1.71043
| 18>    C       -1.70608         0.23665         2.79515
| 19>    C       -2.19275        -0.69202         3.70127
| 20>    F       -2.88791        -0.27594         4.76682
| 21>    C       -1.96715        -2.05555         3.51241
| 22>    F       -2.45444        -2.92967         4.39955
| 23>    C       -1.24956        -2.53259         2.42481
| 24>    C       -0.75925        -1.61030         1.51450
| 25>    C        0.03104        -1.77894         0.29376
| 26>    C        0.57597        -2.95935        -0.14042
| 27>    C        1.45561        -3.09244        -1.23542
| 28>    N        2.20872        -3.26933        -2.08440
| 29>    C        0.37281        -4.20291         0.49446
| 30>    N        0.23615        -5.24285         0.96011
| 31>    C        0.18997        -0.46872        -0.30053
| 32>    C        0.71736        -0.21253        -1.54455
| 33>    C        0.92551         0.99931        -2.20493
| 34>    S        0.56804         2.60518        -1.59127
| 35>    C        1.11847         3.30914        -3.06755
| 36>    C        1.55603         2.34546        -3.99508
| 37>    C        1.45833         1.04365        -3.51408
| 38>    O        1.75719        -0.07326        -4.21885
| 39>    C        3.06332        -0.62735        -4.03232
| 40>    S        2.09656         3.02330        -5.51804
| 41>    C        1.73418         4.59844        -4.90434
| 42>    C        1.23249         4.59726        -3.59583
| 43>    N        0.97996         5.87955        -3.18870
| 44>    C        0.14605         6.10230        -2.02708
| 45>    C        1.30846         6.72757        -4.23117
| 46>    C        1.76169         5.93277        -5.32719
| 47>    C        2.06550         6.49326        -6.58812
| 48>    N        2.46217         5.87982        -7.69182
| 49>    S        2.59595         6.97959        -8.87096
| 50>    N        2.15594         8.28338        -8.01739
| 51>    C        1.88922         7.90168        -6.77832
| 52>    C        1.52650         8.69752        -5.66896
| 53>    C        1.29784         8.14153        -4.37469
| 54>    N        1.09159         9.18291        -3.48760
| 55>    C        1.15711         9.21014        -2.04277
| 56>    C        2.50481         8.70347        -1.53614
| 57>    C        1.16971        10.35509        -4.18856
| 58>    C        1.41603        10.08668        -5.53943
| 59>    S        1.52242        11.50251        -6.51917
| 60>    C        1.25613        12.49032        -5.08283
| 61>    C        1.08833        11.72459        -3.91568
| 62>    S        0.83135        12.68151        -2.50328
| 63>    C        0.97022        14.14558        -3.46316
| 64>    C        1.18051        13.86303        -4.83922
| 65>    O        1.24489        14.89464        -5.68088
| 66>    C        1.66245        14.69957        -7.02500
| 67>    C        0.93371        15.45740        -3.00208
| 68>    C        0.75227        15.94699        -1.72677
| 69>    C        0.76881        17.34157        -1.34672
| 70>    C        1.06640        18.42169        -2.13768
| 71>    C        1.05783        19.75744        -1.68373
| 72>    N        1.07291        20.86346        -1.37673
| 73>    C        1.44524        18.37071        -3.49592
| 74>    N        1.77133        18.42756        -4.59607
| 75>    C        0.44383        17.40702         0.08059
| 76>    C        0.30137        18.48314         0.94154
| 77>    C       -0.00927        18.22021         2.26820
| 78>    F       -0.15290        19.24664         3.11453
| 79>    C       -0.17479        16.91801         2.73839
| 80>    F       -0.47264        16.70983         4.02750
| 81>    C       -0.03440        15.83602         1.88400
| 82>    C        0.27249        16.09883         0.56424
| 83>    C        0.47055        15.14081        -0.54383
| 84>    O        0.40158        13.92533        -0.46132
| 85>    C       -1.23828         6.60815        -2.42384
| 86>    C        4.16651         0.26876        -4.57545
| 87>    C        3.17176        14.52867        -7.12974
| 88>    H       -1.87896         1.29143         2.93730
| 89>    H       -1.10416        -3.59556         2.32400
| 90>    H        0.99703        -1.07004        -2.14571
| 91>    H        3.23239        -0.83982        -2.96920
| 92>    H        3.02509        -1.57215        -4.57630
| 93>    H        0.04567         5.13597        -1.52752
| 94>    H        0.63628         6.77591        -1.32461
| 95>    H        1.03068        10.25356        -1.74535
| 96>    H        0.32690         8.65169        -1.61105
| 97>    H        3.30328         9.34342        -1.90411
| 98>    H        2.52100         8.72331        -0.45012
| 99>    H        2.70068         7.68827        -1.87371
|100>    H        1.13925        13.84658        -7.46979
|101>    H        1.34954        15.61539        -7.53171
|102>    H        1.07470        16.18033        -3.79620
|103>    H        0.41815        19.50792         0.62981
|104>    H       -0.16174        14.82743         2.24337
|105>    H       -1.17640         7.53809        -2.98448
|106>    H       -1.73837         5.86970        -3.04608
|107>    H       -1.83946         6.77263        -1.53408
|108>    H        4.23974         1.18819        -3.99765
|109>    H        3.96692         0.52423        -5.61320
|110>    H        5.11569        -0.25586        -4.51554
|111>    H        3.49637        13.62760        -6.61501
|112>    H        3.45472        14.45301        -8.17505
|113>    H        3.67112        15.38695        -6.68723
|114> *
|115>
|116>                          ****END OF INPUT****

CARTESIAN COORDINATES (ANGSTROEM)
---------------------------------
  C     -0.392240    0.525730    0.599590
  O     -0.403470    1.737750    0.473270
  C     -0.997230   -0.239180    1.710430
  C     -1.706080    0.236650    2.795150
  C     -2.192750   -0.692020    3.701270
  F     -2.887910   -0.275940    4.766820
  C     -1.967150   -2.055550    3.512410
  F     -2.454440   -2.929670    4.399550
  C     -1.249560   -2.532590    2.424810
  C     -0.759250   -1.610300    1.514500
  C      0.031040   -1.778940    0.293760
  C      0.575970   -2.959350   -0.140420
  C      1.455610   -3.092440   -1.235420
  N      2.208720   -3.269330   -2.084400
  C      0.372810   -4.202910    0.494460
  N      0.236150   -5.242850    0.960110
  C      0.189970   -0.468720   -0.300530
  C      0.717360   -0.212530   -1.544550
  C      0.925510    0.999310   -2.204930
  S      0.568040    2.605180   -1.591270
  C      1.118470    3.309140   -3.067550
  C      1.556030    2.345460   -3.995080
  C      1.458330    1.043650   -3.514080
  O      1.757190   -0.073260   -4.218850
  C      3.063320   -0.627350   -4.032320
  S      2.096560    3.023300   -5.518040
  C      1.734180    4.598440   -4.904340
  C      1.232490    4.597260   -3.595830
  N      0.979960    5.879550   -3.188700
  C      0.146050    6.102300   -2.027080
  C      1.308460    6.727570   -4.231170
  C      1.761690    5.932770   -5.327190
  C      2.065500    6.493260   -6.588120
  N      2.462170    5.879820   -7.691820
  S      2.595950    6.979590   -8.870960
  N      2.155940    8.283380   -8.017390
  C      1.889220    7.901680   -6.778320
  C      1.526500    8.697520   -5.668960
  C      1.297840    8.141530   -4.374690
  N      1.091590    9.182910   -3.487600
  C      1.157110    9.210140   -2.042770
  C      2.504810    8.703470   -1.536140
  C      1.169710   10.355090   -4.188560
  C      1.416030   10.086680   -5.539430
  S      1.522420   11.502510   -6.519170
  C      1.256130   12.490320   -5.082830
  C      1.088330   11.724590   -3.915680
  S      0.831350   12.681510   -2.503280
  C      0.970220   14.145580   -3.463160
  C      1.180510   13.863030   -4.839220
  O      1.244890   14.894640   -5.680880
  C      1.662450   14.699570   -7.025000
  C      0.933710   15.457400   -3.002080
  C      0.752270   15.946990   -1.726770
  C      0.768810   17.341570   -1.346720
  C      1.066400   18.421690   -2.137680
  C      1.057830   19.757440   -1.683730
  N      1.072910   20.863460   -1.376730
  C      1.445240   18.370710   -3.495920
  N      1.771330   18.427560   -4.596070
  C      0.443830   17.407020    0.080590
  C      0.301370   18.483140    0.941540
  C     -0.009270   18.220210    2.268200
  F     -0.152900   19.246640    3.114530
  C     -0.174790   16.918010    2.738390
  F     -0.472640   16.709830    4.027500
  C     -0.034400   15.836020    1.884000
  C      0.272490   16.098830    0.564240
  C      0.470550   15.140810   -0.543830
  O      0.401580   13.925330   -0.461320
  C     -1.238280    6.608150   -2.423840
  C      4.166510    0.268760   -4.575450
  C      3.171760   14.528670   -7.129740
  H     -1.878960    1.291430    2.937300
  H     -1.104160   -3.595560    2.324000
  H      0.997030   -1.070040   -2.145710
  H      3.232390   -0.839820   -2.969200
  H      3.025090   -1.572150   -4.576300
  H      0.045670    5.135970   -1.527520
  H      0.636280    6.775910   -1.324610
  H      1.030680   10.253560   -1.745350
  H      0.326900    8.651690   -1.611050
  H      3.303280    9.343420   -1.904110
  H      2.521000    8.723310   -0.450120
  H      2.700680    7.688270   -1.873710
  H      1.139250   13.846580   -7.469790
  H      1.349540   15.615390   -7.531710
  H      1.074700   16.180330   -3.796200
  H      0.418150   19.507920    0.629810
  H     -0.161740   14.827430    2.243370
  H     -1.176400    7.538090   -2.984480
  H     -1.738370    5.869700   -3.046080
  H     -1.839460    6.772630   -1.534080
  H      4.239740    1.188190   -3.997650
  H      3.966920    0.524230   -5.613200
  H      5.115690   -0.255860   -4.515540
  H      3.496370   13.627600   -6.615010
  H      3.454720   14.453010   -8.175050
  H      3.671120   15.386950   -6.687230

 Total Charge           Charge          ....    0
 Multiplicity           Mult            ....    1
 Number of Electrons    NEL             ....  542
 Basis Dimension        Dim             .... 1172

ORBITAL ENERGIES
----------------

  NO   OCC          E(Eh)            E(eV)
   0   2.0000     -89.037634     -2422.8372
   1   2.0000     -89.000980     -2421.8398
   2   2.0000     -89.000654     -2421.8309
   3   2.0000     -88.996309     -2421.7127
   4   2.0000     -88.996263     -2421.7114
   5   2.0000     -24.837028      -675.8499
   6   2.0000     -24.835436      -675.8066
   7   2.0000     -24.831803      -675.7077
   8   2.0000     -24.829897      -675.6558
   9   2.0000     -19.315252      -525.5947
  10   2.0000     -19.292384      -524.9725
  11   2.0000     -19.265044      -524.2285
  12   2.0000     -19.257608      -524.0262
  13   2.0000     -14.533008      -395.4632
  14   2.0000     -14.532017      -395.4363
  15   2.0000     -14.476278      -393.9195
  16   2.0000     -14.475982      -393.9115
  17   2.0000     -14.457459      -393.4075
  18   2.0000     -14.452343      -393.2683
  19   2.0000     -14.448050      -393.1514
  20   2.0000     -14.444885      -393.0653
  21   2.0000     -10.422930      -283.6223
  22   2.0000     -10.422450      -283.6093
  23   2.0000     -10.416910      -283.4585
  24   2.0000     -10.416342      -283.4431
  25   2.0000     -10.412284      -283.3327
  26   2.0000     -10.412263      -283.3321
  27   2.0000     -10.404577      -283.1229
  28   2.0000     -10.401450      -283.0378
  29   2.0000     -10.384860      -282.5864
  30   2.0000     -10.384581      -282.5788
  31   2.0000     -10.384106      -282.5659
  32   2.0000     -10.380374      -282.4643
  33   2.0000     -10.376502      -282.3590
  34   2.0000     -10.374997      -282.3180
  35   2.0000     -10.374728      -282.3107
  36   2.0000     -10.374624      -282.3079
  37   2.0000     -10.371466      -282.2219
  38   2.0000     -10.364695      -282.0377
  39   2.0000     -10.364328      -282.0277
  40   2.0000     -10.364241      -282.0253
  41   2.0000     -10.363703      -282.0107
  42   2.0000     -10.362697      -281.9833
  43   2.0000     -10.361070      -281.9391
  44   2.0000     -10.360708      -281.9292
  45   2.0000     -10.360267      -281.9172
  46   2.0000     -10.358924      -281.8806
  47   2.0000     -10.355496      -281.7874
  48   2.0000     -10.354935      -281.7721
  49   2.0000     -10.354654      -281.7645
  50   2.0000     -10.354469      -281.7594
  51   2.0000     -10.353675      -281.7378
  52   2.0000     -10.351062      -281.6667
  53   2.0000     -10.350714      -281.6572
  54   2.0000     -10.349849      -281.6337
  55   2.0000     -10.349350      -281.6201
  56   2.0000     -10.348086      -281.5857
  57   2.0000     -10.347767      -281.5771
  58   2.0000     -10.346737      -281.5490
  59   2.0000     -10.346608      -281.5455
  60   2.0000     -10.345491      -281.5151
  61   2.0000     -10.340659      -281.3836
  62   2.0000     -10.340246      -281.3724
  63   2.0000     -10.339128      -281.3420
  64   2.0000     -10.335625      -281.2467
  65   2.0000     -10.335154      -281.2338
  66   2.0000     -10.333544      -281.1900
  67   2.0000     -10.332615      -281.1647
  68   2.0000     -10.322363      -280.8858
  69   2.0000     -10.321679      -280.8672
  70   2.0000     -10.321546      -280.8636
  71   2.0000     -10.303519      -280.3730
  72   2.0000     -10.297336      -280.2047
  73   2.0000      -8.148737      -221.7384
  74   2.0000      -8.112940      -220.7643
  75   2.0000      -8.111556      -220.7267
  76   2.0000      -8.108527      -220.6442
  77   2.0000      -8.107231      -220.6090
  78   2.0000      -6.110550      -166.2765
  79   2.0000      -6.102620      -166.0607
  80   2.0000      -6.100464      -166.0021
  81   2.0000      -6.073258      -165.2617
  82   2.0000      -6.071683      -165.2189
  83   2.0000      -6.069007      -165.1461
  84   2.0000      -6.068709      -165.1380
  85   2.0000      -6.067501      -165.1051
  86   2.0000      -6.067113      -165.0945
  87   2.0000      -6.064613      -165.0265
  88   2.0000      -6.063881      -165.0066
  89   2.0000      -6.063081      -164.9848
  90   2.0000      -6.062810      -164.9775
  91   2.0000      -6.059541      -164.8885
  92   2.0000      -6.058567      -164.8620
  93   2.0000      -1.366737       -37.1908
  94   2.0000      -1.361142       -37.0386
  95   2.0000      -1.351665       -36.7807
  96   2.0000      -1.346107       -36.6294
  97   2.0000      -1.224960       -33.3329
  98   2.0000      -1.200379       -32.6640
  99   2.0000      -1.182900       -32.1883
 100   2.0000      -1.175142       -31.9772
 101   2.0000      -1.165235       -31.7077
 102   2.0000      -1.157103       -31.4864
 103   2.0000      -1.150915       -31.3180
 104   2.0000      -1.064379       -28.9632
 105   2.0000      -1.056630       -28.7524
 106   2.0000      -1.054411       -28.6920
 107   2.0000      -1.052649       -28.6440
 108   2.0000      -1.046048       -28.4644
 109   2.0000      -1.038291       -28.2533
 110   2.0000      -1.035811       -28.1859
 111   2.0000      -1.027614       -27.9628
 112   2.0000      -1.018988       -27.7281
 113   2.0000      -1.012491       -27.5513
 114   2.0000      -1.003665       -27.3111
 115   2.0000      -0.999064       -27.1859
 116   2.0000      -0.992404       -27.0047
 117   2.0000      -0.987016       -26.8581
 118   2.0000      -0.956746       -26.0344
 119   2.0000      -0.946631       -25.7592
 120   2.0000      -0.939649       -25.5692
 121   2.0000      -0.936760       -25.4905
 122   2.0000      -0.927156       -25.2292
 123   2.0000      -0.925434       -25.1824
 124   2.0000      -0.918679       -24.9985
 125   2.0000      -0.916609       -24.9422
 126   2.0000      -0.913815       -24.8662
 127   2.0000      -0.910208       -24.7680
 128   2.0000      -0.903068       -24.5737
 129   2.0000      -0.891999       -24.2725
 130   2.0000      -0.881281       -23.9809
 131   2.0000      -0.874477       -23.7957
 132   2.0000      -0.868784       -23.6408
 133   2.0000      -0.856500       -23.3066
 134   2.0000      -0.846768       -23.0417
 135   2.0000      -0.843502       -22.9529
 136   2.0000      -0.833603       -22.6835
 137   2.0000      -0.816061       -22.2061
 138   2.0000      -0.809983       -22.0408
 139   2.0000      -0.806864       -21.9559
 140   2.0000      -0.804276       -21.8855
 141   2.0000      -0.798414       -21.7260
 142   2.0000      -0.790676       -21.5154
 143   2.0000      -0.774749       -21.0820
 144   2.0000      -0.772440       -21.0192
 145   2.0000      -0.761259       -20.7149
 146   2.0000      -0.757101       -20.6018
 147   2.0000      -0.749593       -20.3975
 148   2.0000      -0.743981       -20.2448
 149   2.0000      -0.741009       -20.1639
 150   2.0000      -0.738612       -20.0986
 151   2.0000      -0.732871       -19.9424
 152   2.0000      -0.716941       -19.5090
 153   2.0000      -0.709532       -19.3073
 154   2.0000      -0.708202       -19.2712
 155   2.0000      -0.699897       -19.0452
 156   2.0000      -0.695274       -18.9194
 157   2.0000      -0.690173       -18.7806
 158   2.0000      -0.685273       -18.6472
 159   2.0000      -0.682417       -18.5695
 160   2.0000      -0.678364       -18.4592
 161   2.0000      -0.674467       -18.3532
 162   2.0000      -0.674157       -18.3447
 163   2.0000      -0.663853       -18.0644
 164   2.0000      -0.663339       -18.0504
 165   2.0000      -0.653347       -17.7785
 166   2.0000      -0.651926       -17.7398
 167   2.0000      -0.646753       -17.5990
 168   2.0000      -0.645330       -17.5603
 169   2.0000      -0.636217       -17.3123
 170   2.0000      -0.631881       -17.1944
 171   2.0000      -0.630988       -17.1701
 172   2.0000      -0.627178       -17.0664
 173   2.0000      -0.625870       -17.0308
 174   2.0000      -0.625168       -17.0117
 175   2.0000      -0.621615       -16.9150
 176   2.0000      -0.619035       -16.8448
 177   2.0000      -0.611691       -16.6450
 178   2.0000      -0.609314       -16.5803
 179   2.0000      -0.602851       -16.4044
 180   2.0000      -0.597055       -16.2467
 181   2.0000      -0.594868       -16.1872
 182   2.0000      -0.591574       -16.0975
 183   2.0000      -0.590972       -16.0812
 184   2.0000      -0.588851       -16.0234
 185   2.0000      -0.586065       -15.9477
 186   2.0000      -0.584667       -15.9096
 187   2.0000      -0.583164       -15.8687
 188   2.0000      -0.582901       -15.8615
 189   2.0000      -0.580906       -15.8072
 190   2.0000      -0.580655       -15.8004
 191   2.0000      -0.579789       -15.7768
 192   2.0000      -0.573812       -15.6142
 193   2.0000      -0.573010       -15.5924
 194   2.0000      -0.570965       -15.5367
 195   2.0000      -0.568530       -15.4705
 196   2.0000      -0.565781       -15.3957
 197   2.0000      -0.564109       -15.3502
 198   2.0000      -0.560680       -15.2569
 199   2.0000      -0.552927       -15.0459
 200   2.0000      -0.551061       -14.9951
 201   2.0000      -0.546509       -14.8713
 202   2.0000      -0.543723       -14.7955
 203   2.0000      -0.540286       -14.7019
 204   2.0000      -0.538278       -14.6473
 205   2.0000      -0.534682       -14.5494
 206   2.0000      -0.532336       -14.4856
 207   2.0000      -0.530548       -14.4369
 208   2.0000      -0.529439       -14.4068
 209   2.0000      -0.528001       -14.3676
 210   2.0000      -0.527595       -14.3566
 211   2.0000      -0.525345       -14.2954
 212   2.0000      -0.523572       -14.2471
 213   2.0000      -0.521461       -14.1897
 214   2.0000      -0.519808       -14.1447
 215   2.0000      -0.517309       -14.0767
 216   2.0000      -0.510374       -13.8880
 217   2.0000      -0.508642       -13.8409
 218   2.0000      -0.506550       -13.7839
 219   2.0000      -0.501851       -13.6561
 220   2.0000      -0.500087       -13.6081
 221   2.0000      -0.499140       -13.5823
 222   2.0000      -0.497909       -13.5488
 223   2.0000      -0.496097       -13.4995
 224   2.0000      -0.494196       -13.4478
 225   2.0000      -0.493284       -13.4229
 226   2.0000      -0.492470       -13.4008
 227   2.0000      -0.489443       -13.3184
 228   2.0000      -0.487658       -13.2699
 229   2.0000      -0.486902       -13.2493
 230   2.0000      -0.480992       -13.0885
 231   2.0000      -0.480772       -13.0825
 232   2.0000      -0.479089       -13.0367
 233   2.0000      -0.475978       -12.9520
 234   2.0000      -0.473953       -12.8969
 235   2.0000      -0.472532       -12.8582
 236   2.0000      -0.467550       -12.7227
 237   2.0000      -0.467009       -12.7080
 238   2.0000      -0.463657       -12.6167
 239   2.0000      -0.462722       -12.5913
 240   2.0000      -0.458827       -12.4853
 241   2.0000      -0.457759       -12.4562
 242   2.0000      -0.452927       -12.3248
 243   2.0000      -0.451420       -12.2838
 244   2.0000      -0.449944       -12.2436
 245   2.0000      -0.448104       -12.1935
 246   2.0000      -0.445652       -12.1268
 247   2.0000      -0.444968       -12.1082
 248   2.0000      -0.444631       -12.0990
 249   2.0000      -0.437938       -11.9169
 250   2.0000      -0.437164       -11.8958
 251   2.0000      -0.433457       -11.7950
 252   2.0000      -0.433024       -11.7832
 253   2.0000      -0.409238       -11.1359
 254   2.0000      -0.404466       -11.0061
 255   2.0000      -0.401619       -10.9286
 256   2.0000      -0.400033       -10.8854
 257   2.0000      -0.387355       -10.5405
 258   2.0000      -0.383505       -10.4357
 259   2.0000      -0.378964       -10.3121
 260   2.0000      -0.376099       -10.2342
 261   2.0000      -0.371678       -10.1139
 262   2.0000      -0.369795       -10.0626
 263   2.0000      -0.353731        -9.6255
 264   2.0000      -0.350811        -9.5461
 265   2.0000      -0.346344        -9.4245
 266   2.0000      -0.337036        -9.1712
 267   2.0000      -0.324422        -8.8280
 268   2.0000      -0.311766        -8.4836
 269   2.0000      -0.303009        -8.2453
 270   2.0000      -0.272897        -7.4259
 271   0.0000      -0.078235        -2.1289
 272   0.0000      -0.063128        -1.7178
 273   0.0000      -0.045147        -1.2285
 274   0.0000      -0.038004        -1.0341
 275   0.0000      -0.021473        -0.5843

MULLIKEN ATOMIC CHARGES
-----------------------
   0 C :    0.235124
   1 O :   -0.208338
   2 C :   -0.056473
   3 C :   -0.097109
   4 C :    0.244073
   5 F :   -0.184192
   6 C :    0.245031
   7 F :   -0.178877
   8 C :   -0.088284
   9 C :    0.024119
  10 C :    0.284572
  11 C :   -0.374287
  12 C :   -0.134240
  13 N :    0.102919
  14 C :   -0.131818
  15 N :    0.109333
  16 C :   -0.145620
  17 C :   -0.013163
  18 C :   -0.139662
  19 S :    0.186778
  20 C :   -0.022392
  21 C :   -0.078697
  22 C :    0.155167
  23 O :   -0.356311
  24 C :    0.148019
  25 S :    0.227569
  26 C :   -0.056967
  27 C :    0.029896
  28 N :   -0.255355
  29 C :    0.061797
  30 C :    0.103265
  31 C :   -0.116190
  32 C :    0.021361
  33 N :   -0.296402
  34 S :    0.483818
  35 N :   -0.299691
  36 C :    0.017704
  37 C :   -0.109448
  38 C :    0.104869
  39 N :   -0.249376
  40 C :    0.061287
  41 C :   -0.053625
  42 C :    0.042860
  43 C :   -0.057744
  44 S :    0.194643
  45 C :   -0.123549
  46 C :   -0.017745
  47 S :    0.181182
  48 C :   -0.156748
  49 C :    0.192063
  50 O :   -0.310224
  51 C :    0.113748
  52 C :    0.011906
  53 C :   -0.153945
  54 C :    0.288409
  55 C :   -0.383198
  56 C :   -0.134225
  57 N :    0.102053
  58 C :   -0.132014
  59 N :    0.100194
  60 C :    0.026627
  61 C :   -0.089721
  62 C :    0.244800
  63 F :   -0.181308
  64 C :    0.240565
  65 F :   -0.186294
  66 C :   -0.097208
  67 C :   -0.054447
  68 C :    0.234867
  69 O :   -0.219739
  70 C :   -0.053402
  71 C :   -0.085722
  72 C :   -0.077885
  73 H :    0.040093
  74 H :    0.047258
  75 H :    0.046408
  76 H :    0.034513
  77 H :    0.063820
  78 H :    0.063453
  79 H :    0.043634
  80 H :    0.065408
  81 H :    0.043696
  82 H :    0.056108
  83 H :    0.058745
  84 H :    0.050732
  85 H :    0.048815
  86 H :    0.067834
  87 H :    0.045612
  88 H :    0.044399
  89 H :    0.036262
  90 H :    0.050830
  91 H :    0.058053
  92 H :    0.057586
  93 H :    0.048168
  94 H :    0.051664
  95 H :    0.052845
  96 H :    0.045713
  97 H :    0.054352
  98 H :    0.065017
Sum of atomic charges:   -0.0000000

LOEWDIN ATOMIC CHARGES
----------------------
   0 C :    0.093909
   1 O :   -0.173613
   2 C :   -0.050093
   3 C :   -0.007783
   4 C :    0.074084
   5 F :   -0.049790
   6 C :    0.077587
   7 F :   -0.046648
   8 C :   -0.017273
   9 C :   -0.018116
  10 C :    0.082066
  11 C :   -0.150982
  12 C :   -0.011653
  13 N :   -0.057340
  14 C :   -0.015600
  15 N :   -0.053504
  16 C :   -0.134623
  17 C :    0.070213
  18 C :   -0.218509
  19 S :    0.474467
  20 C :   -0.191336
  21 C :   -0.215113
  22 C :    0.050838
  23 O :   -0.118915
  24 C :    0.092805
  25 S :    0.434138
  26 C :   -0.168318
  27 C :   -0.045543
  28 N :    0.038594
  29 C :    0.040767
  30 C :    0.011612
  31 C :   -0.078595
  32 C :   -0.053322
  33 N :   -0.285029
  34 S :    0.601881
  35 N :   -0.287731
  36 C :   -0.053567
  37 C :   -0.079428
  38 C :    0.013167
  39 N :    0.040750
  40 C :    0.040465
  41 C :   -0.063212
  42 C :   -0.044748
  43 C :   -0.169619
  44 S :    0.424409
  45 C :   -0.234150
  46 C :   -0.183269
  47 S :    0.470068
  48 C :   -0.227715
  49 C :    0.062502
  50 O :   -0.064681
  51 C :    0.082586
  52 C :    0.073566
  53 C :   -0.143893
  54 C :    0.081131
  55 C :   -0.154777
  56 C :   -0.014847
  57 N :   -0.059913
  58 C :   -0.016012
  59 N :   -0.059528
  60 C :   -0.017442
  61 C :   -0.018209
  62 C :    0.076187
  63 F :   -0.048722
  64 C :    0.072173
  65 F :   -0.051974
  66 C :   -0.009485
  67 C :   -0.050014
  68 C :    0.093686
  69 O :   -0.181742
  70 C :   -0.062925
  71 C :   -0.079684
  72 C :   -0.074082
  73 H :    0.054616
  74 H :    0.054483
  75 H :    0.052501
  76 H :    0.013822
  77 H :    0.034391
  78 H :    0.030212
  79 H :    0.025220
  80 H :    0.030031
  81 H :    0.025538
  82 H :    0.038692
  83 H :    0.039162
  84 H :    0.028286
  85 H :    0.009057
  86 H :    0.038753
  87 H :    0.052257
  88 H :    0.053804
  89 H :    0.053344
  90 H :    0.028545
  91 H :    0.039265
  92 H :    0.038916
  93 H :    0.027100
  94 H :    0.028690
  95 H :    0.039982
  96 H :    0.023370
  97 H :    0.040254
  98 H :    0.039118

  Mayer bond orders larger than 0.100000
B(  0-C ,  1-O ) :   2.1141 B(  0-C ,  2-C ) :   0.9691 B(  0-C , 16-C ) :   0.9935
B(  2-C ,  3-C ) :   1.3437 B(  2-C ,  9-C ) :   1.3453 B(  3-C ,  4-C ) :   1.3275
B(  3-C , 73-H ) :   1.0156 B(  4-C ,  5-F ) :   1.0996 B(  4-C ,  6-C ) :   1.2951
B(  6-C ,  7-F ) :   1.1152 B(  6-C ,  8-C ) :   1.3466 B(  8-C ,  9-C ) :   1.3370
B(  8-C , 74-H ) :   0.9895 B(  9-C , 10-C ) :   1.0143 B( 10-C , 11-C ) :   1.6372
B( 10-C , 16-C ) :   1.1054 B( 11-C , 12-C ) :   1.1390 B( 11-C , 14-C ) :   1.1271
B( 12-C , 13-N ) :   2.9646 B( 14-C , 15-N ) :   2.9770 B( 16-C , 17-C ) :   1.4802
B( 17-C , 18-C ) :   1.3156 B( 17-C , 75-H ) :   0.9385 B( 18-C , 19-S ) :   1.0346
B( 18-C , 22-C ) :   1.3486 B( 19-S , 20-C ) :   1.0301 B( 20-C , 21-C ) :   1.4289
B( 20-C , 27-C ) :   1.3170 B( 21-C , 22-C ) :   1.4124 B( 21-C , 25-S ) :   1.0076
B( 22-C , 23-O ) :   1.1758 B( 23-O , 24-C ) :   0.8717 B( 24-C , 71-C ) :   1.0966
B( 24-C , 76-H ) :   0.9517 B( 24-C , 77-H ) :   0.9619 B( 25-S , 26-C ) :   1.0172
B( 26-C , 27-C ) :   1.4113 B( 26-C , 31-C ) :   1.3949 B( 27-C , 28-N ) :   1.1426
B( 28-N , 29-C ) :   0.9304 B( 28-N , 30-C ) :   1.1623 B( 29-C , 70-C ) :   1.1016
B( 29-C , 78-H ) :   0.9433 B( 29-C , 79-H ) :   0.9466 B( 30-C , 31-C ) :   1.3974
B( 30-C , 38-C ) :   1.1370 B( 31-C , 32-C ) :   1.1309 B( 32-C , 33-N ) :   1.6167
B( 32-C , 36-C ) :   1.1412 B( 33-N , 34-S ) :   1.2320 B( 33-N , 35-N ) :   0.1303
B( 34-S , 35-N ) :   1.2284 B( 35-N , 36-C ) :   1.6179 B( 36-C , 37-C ) :   1.1323
B( 37-C , 38-C ) :   1.3948 B( 37-C , 43-C ) :   1.3840 B( 38-C , 39-N ) :   1.1670
B( 39-N , 40-C ) :   0.9293 B( 39-N , 42-C ) :   1.1437 B( 40-C , 41-C ) :   1.1005
B( 40-C , 80-H ) :   0.9426 B( 40-C , 81-H ) :   0.9463 B( 41-C , 82-H ) :   0.9635
B( 41-C , 83-H ) :   0.9680 B( 41-C , 84-H ) :   0.9643 B( 42-C , 43-C ) :   1.4063
B( 42-C , 46-C ) :   1.3225 B( 43-C , 44-S ) :   1.0231 B( 44-S , 45-C ) :   0.9919
B( 45-C , 46-C ) :   1.4418 B( 45-C , 49-C ) :   1.3667 B( 46-C , 47-S ) :   1.0341
B( 47-S , 48-C ) :   1.0180 B( 48-C , 49-C ) :   1.3291 B( 48-C , 52-C ) :   1.3715
B( 49-C , 50-O ) :   1.2206 B( 50-O , 51-C ) :   0.8875 B( 51-C , 72-C ) :   1.0942
B( 51-C , 85-H ) :   0.9512 B( 51-C , 86-H ) :   0.9582 B( 52-C , 53-C ) :   1.4524
B( 52-C , 87-H ) :   0.9286 B( 53-C , 54-C ) :   1.1215 B( 53-C , 68-C ) :   1.0043
B( 54-C , 55-C ) :   1.6266 B( 54-C , 60-C ) :   1.0082 B( 55-C , 56-C ) :   1.1315
B( 55-C , 58-C ) :   1.1347 B( 56-C , 57-N ) :   2.9723 B( 58-C , 59-N ) :   2.9623
B( 60-C , 61-C ) :   1.3383 B( 60-C , 67-C ) :   1.3474 B( 61-C , 62-C ) :   1.3444
B( 61-C , 88-H ) :   0.9900 B( 62-C , 63-F ) :   1.1123 B( 62-C , 64-C ) :   1.2982
B( 64-C , 65-F ) :   1.0977 B( 64-C , 66-C ) :   1.3255 B( 66-C , 67-C ) :   1.3433
B( 66-C , 89-H ) :   1.0166 B( 67-C , 68-C ) :   0.9699 B( 68-C , 69-O ) :   2.0975
B( 70-C , 90-H ) :   0.9638 B( 70-C , 91-H ) :   0.9637 B( 70-C , 92-H ) :   0.9680
B( 71-C , 93-H ) :   0.9680 B( 71-C , 94-H ) :   0.9668 B( 71-C , 95-H ) :   0.9642
B( 72-C , 96-H ) :   0.9663 B( 72-C , 97-H ) :   0.9658 B( 72-C , 98-H ) :   0.9666

-----------------------------------------------------------------------------
         ABSORPTION SPECTRUM VIA TRANSITION ELECTRIC DIPOLE MOMENTS
-----------------------------------------------------------------------------
State   Energy  Wavelength   fosc         T2         TX        TY        TZ
        (cm-1)    (nm)                  (au**2)     (au)      (au)      (au)
-----------------------------------------------------------------------------
   0   20051.2    498.7   2.931480160  48.13075  -0.27870  -6.90804   0.57624
   1   25794.9    387.7   1.057661480  13.49859  -0.71472   0.21258   3.59758
   2   28412.1    352.0   0.135864528   1.57427  -0.27122   0.35178   1.17344
   3   29289.8    341.4   0.226508629   2.54591   0.37195   0.22985  -1.53451
   4   30061.9    332.6   0.167410014   1.83333  -0.37513   0.90676   0.93295
   5   31176.7    320.8   0.169781325   1.79281   0.06051   1.13447  -0.70861
   6   32061.7    311.9   0.034256260   0.35175   0.27050   0.48609  -0.20565
   7   33372.1    299.7   0.028117926   0.27738  -0.27404   0.13720   0.42832
   8   35328.3    283.1   0.084946574   0.79159  -0.18203   0.79944  -0.34547
   9   35958.8    278.1   0.405108194   3.70887   0.60073  -0.36494  -1.79299
  10   37427.2    267.2   1.105820469   9.72686   1.28263  -0.21700  -2.83454
  11   37975.3    263.3   0.032119061   0.27844  -0.49286   0.02672   0.18660
  12   38611.9    259.0   0.039208012   0.33429   0.26966  -0.48223  -0.17039
  13   38957.0    256.7   0.741284255   6.26433   0.57975   1.51605  -1.90521
  14   39647.7    252.2   0.453277919   3.76377   0.76915  -1.60820  -0.76542

Dispersion correction           -0.064059443
FINAL SINGLE POINT ENERGY     -5122.488587885872

DIPOLE MOMENT
-------------
                                X             Y             Z
Electronic contribution:    -23.83637       3.59368      37.35053
Nuclear contribution   :     23.90173      -4.14378     -37.80460
                        -----------------------------------------
Total Dipole Moment    :      0.06535      -0.55010      -0.45407
                        -----------------------------------------
Magnitude (a.u.)       :      0.71628
Magnitude (Debye)      :      1.82065

Rotational constants in cm-1:     0.001203     0.000293     0.000239
Rotational constants in MHz :    36.065890     8.793279     7.171173

                             ****ORCA TERMINATED NORMALLY****
TOTAL RUN TIME: 0 days 0 hours 9 minutes 42 seconds 33 msec
