                         Program Version 4.2.0 -  RELEASE  -
|  1> # ORCA input file
|  2> # SCF done       -191.106734523080          0.000864817790
|  3> ! wb97x-d3 def2-SVP def2/J RIJCOSX Grid4 TightSCF
|  4> %maxcore 5000
|  5> %tddft
|  6>     Mode sTDA
|  7>     Ethresh 5.0
|  8>     maxcore 5000
|  9> end
| 10>
| 11> %pal
| 12>   nprocs 6
| 13>   end
| 14> * xyz 0 1
| 15>    C        3.84701        -4.16363         0.51208
| 16>    O        3.48236        -4.52874        -0.59152
| 17>    C        4.77738        -4.88543         1.40359
| 18>    C        5.42159        -6.08600         1.18052
| 19>    C        6.25318        -6.56388         2.18041
| 20>    F        6.89838        -7.72300         2.00758
| 21>    C        6.42352        -5.84743         3.36551
| 22>    F        7.23151        -6.33202         4.31360
| 23>    C        5.77534        -4.64123         3.58859
| 24>    C        4.94213        -4.15580         2.59308
| 25>    C        4.13045        -2.93970         2.51650
| 26>    C        4.03808        -1.99263         3.50280
| 27>    C        3.26036        -0.81631         3.44833
| 28>    N        2.65657         0.16068         3.48323
| 29>    C        4.72015        -2.06629         4.73685
| 30>    N        5.24394        -2.06347         5.75761
| 31>    C        3.46307        -2.94695         1.22903
| 32>    C        2.61406        -1.96803         0.77044
| 33>    C        1.90911        -1.85063        -0.43074
| 34>    S        1.92852        -3.03504        -1.73771
| 35>    C        0.84434        -2.05923        -2.65500
| 36>    C        0.49965        -0.87553        -1.97610
| 37>    C        1.08456        -0.74835        -0.72386
| 38>    C        0.88713         0.45102         0.14316
| 39>    C        2.02811         1.45476        -0.04821
| 40>    S       -0.59173         0.16217        -2.87227
| 41>    C       -0.58058        -0.99525        -4.15533
| 42>    C        0.21052        -2.12508        -3.89911
| 43>    N        0.18107        -2.97000        -4.97499
| 44>    C        1.16866        -4.02207        -5.08302
| 45>    C       -0.63570        -2.40385        -5.93640
| 46>    C       -1.09265        -1.13899        -5.44896
| 47>    C       -1.82148        -0.24742        -6.26376
| 48>    N       -2.27422         0.96151        -5.96582
| 49>    S       -2.95648         1.59111        -7.28972
| 50>    N       -2.70382         0.35125        -8.28995
| 51>    C       -2.07783        -0.60884        -7.62835
| 52>    C       -1.71409        -1.90157        -8.06627
| 53>    C       -1.07166        -2.82816        -7.21434
| 54>    N       -0.98240        -4.04057        -7.88519
| 55>    C       -0.92224        -5.37189        -7.31968
| 56>    C       -2.19547        -5.68738        -6.53709
| 57>    C       -1.53509        -3.89212        -9.13812
| 58>    C       -1.98334        -2.53355        -9.30805
| 59>    S       -2.65765        -1.89366       -10.68125
| 60>    C       -1.79279        -5.68998       -10.97308
| 61>    C       -1.64518        -4.87446       -10.05820
| 62>    S       -2.80752        -7.27209       -14.43593
| 63>    C       -2.56018        -6.22398       -13.16901
| 64>    C       -1.91480        -6.59856       -11.96641
| 65>    C       -1.34777        -7.97455       -11.80429
| 66>    C        0.03782        -8.04433       -12.45294
| 67>    C       -3.09801        -4.89099       -13.38986
| 68>    C       -2.37082        -3.75482       -13.43691
| 69>    C       -2.85044        -2.40144       -13.69951
| 70>    C       -4.15056        -2.00416       -13.82466
| 71>    C       -4.55341        -0.67499       -14.08303
| 72>    N       -4.94400         0.37898       -14.31151
| 73>    C       -5.27338        -2.85002       -13.68948
| 74>    N       -6.23167        -3.47199       -13.58081
| 75>    C       -1.68042        -1.52986       -13.75172
| 76>    C       -1.57443        -0.16300       -13.96382
| 77>    C       -0.31187         0.40673       -13.92343
| 78>    F       -0.18559         1.72226       -14.12544
| 79>    C        0.83062        -0.35772       -13.67879
| 80>    F        2.03058         0.23593       -13.64379
| 81>    C        0.73451        -1.72253       -13.46908
| 82>    C       -0.52435        -2.29153       -13.50770
| 83>    C       -0.88840        -3.70730       -13.30644
| 84>    O       -0.13366        -4.63337       -13.11561
| 85>    C        0.79704        -5.25405        -4.25983
| 86>    H        5.28673        -6.63630         0.26312
| 87>    H        5.94207        -4.12857         4.52146
| 88>    H        2.45173        -1.13526         1.44060
| 89>    H       -0.05437         0.92526        -0.14044
| 90>    H        0.82478         0.17047         1.19551
| 91>    H        2.07701         1.77958        -1.08480
| 92>    H        1.86138         2.32283         0.58260
| 93>    H        2.98313         1.01091         0.22285
| 94>    H        1.31912        -4.25562        -6.13795
| 95>    H        2.11443        -3.62408        -4.69903
| 96>    H       -0.82357        -6.06265        -8.16133
| 97>    H       -0.04945        -5.48959        -6.68563
| 98>    H       -3.06502        -5.61588        -7.18688
| 99>    H       -2.14513        -6.69649        -6.13731
|100>    H       -2.32444        -4.98790        -5.71321
|101>    H       -1.27308        -8.22222       -10.74384
|102>    H       -2.00838        -8.69198       -12.29545
|103>    H        0.69561        -7.29117       -12.02648
|104>    H        0.47163        -9.02865       -12.29619
|105>    H       -0.03977        -7.86169       -13.52099
|106>    H       -4.15203        -4.86501       -13.63574
|107>    H       -2.42610         0.46977       -14.15106
|108>    H        1.61444        -2.31672       -13.28026
|109>    H        0.84595        -5.02072        -3.19994
|110>    H       -0.20726        -5.60101        -4.48646
|111>    H        1.50307        -6.05464        -4.46125
|112> *
|113>
|114>                          ****END OF INPUT****

CARTESIAN COORDINATES (ANGSTROEM)
---------------------------------
  C      3.847010   -4.163630    0.512080
  O      3.482360   -4.528740   -0.591520
  C      4.777380   -4.885430    1.403590
  C      5.421590   -6.086000    1.180520
  C      6.253180   -6.563880    2.180410
  F      6.898380   -7.723000    2.007580
  C      6.423520   -5.847430    3.365510
  F      7.231510   -6.332020    4.313600
  C      5.775340   -4.641230    3.588590
  C      4.942130   -4.155800    2.593080
  C      4.130450   -2.939700    2.516500
  C      4.038080   -1.992630    3.502800
  C      3.260360   -0.816310    3.448330
  N      2.656570    0.160680    3.483230
  C      4.720150   -2.066290    4.736850
  N      5.243940   -2.063470    5.757610
  C      3.463070   -2.946950    1.229030
  C      2.614060   -1.968030    0.770440
  C      1.909110   -1.850630   -0.430740
  S      1.928520   -3.035040   -1.737710
  C      0.844340   -2.059230   -2.655000
  C      0.499650   -0.875530   -1.976100
  C      1.084560   -0.748350   -0.723860
  C      0.887130    0.451020    0.143160
  C      2.028110    1.454760   -0.048210
  S     -0.591730    0.162170   -2.872270
  C     -0.580580   -0.995250   -4.155330
  C      0.210520   -2.125080   -3.899110
  N      0.181070   -2.970000   -4.974990
  C      1.168660   -4.022070   -5.083020
  C     -0.635700   -2.403850   -5.936400
  C     -1.092650   -1.138990   -5.448960
  C     -1.821480   -0.247420   -6.263760
  N     -2.274220    0.961510   -5.965820
  S     -2.956480    1.591110   -7.289720
  N     -2.703820    0.351250   -8.289950
  C     -2.077830   -0.608840   -7.628350
  C     -1.714090   -1.901570   -8.066270
  C     -1.071660   -2.828160   -7.214340
  N     -0.982400   -4.040570   -7.885190
  C     -0.922240   -5.371890   -7.319680
  C     -2.195470   -5.687380   -6.537090
  C     -1.535090   -3.892120   -9.138120
  C     -1.983340   -2.533550   -9.308050
  S     -2.657650   -1.893660  -10.681250
  C     -1.792790   -5.689980  -10.973080
  C     -1.645180   -4.874460  -10.058200
  S     -2.807520   -7.272090  -14.435930
  C     -2.560180   -6.223980  -13.169010
  C     -1.914800   -6.598560  -11.966410
  C     -1.347770   -7.974550  -11.804290
  C      0.037820   -8.044330  -12.452940
  C     -3.098010   -4.890990  -13.389860
  C     -2.370820   -3.754820  -13.436910
  C     -2.850440   -2.401440  -13.699510
  C     -4.150560   -2.004160  -13.824660
  C     -4.553410   -0.674990  -14.083030
  N     -4.944000    0.378980  -14.311510
  C     -5.273380   -2.850020  -13.689480
  N     -6.231670   -3.471990  -13.580810
  C     -1.680420   -1.529860  -13.751720
  C     -1.574430   -0.163000  -13.963820
  C     -0.311870    0.406730  -13.923430
  F     -0.185590    1.722260  -14.125440
  C      0.830620   -0.357720  -13.678790
  F      2.030580    0.235930  -13.643790
  C      0.734510   -1.722530  -13.469080
  C     -0.524350   -2.291530  -13.507700
  C     -0.888400   -3.707300  -13.306440
  O     -0.133660   -4.633370  -13.115610
  C      0.797040   -5.254050   -4.259830
  H      5.286730   -6.636300    0.263120
  H      5.942070   -4.128570    4.521460
  H      2.451730   -1.135260    1.440600
  H     -0.054370    0.925260   -0.140440
  H      0.824780    0.170470    1.195510
  H      2.077010    1.779580   -1.084800
  H      1.861380    2.322830    0.582600
  H      2.983130    1.010910    0.222850
  H      1.319120   -4.255620   -6.137950
  H      2.114430   -3.624080   -4.699030
  H     -0.823570   -6.062650   -8.161330
  H     -0.049450   -5.489590   -6.685630
  H     -3.065020   -5.615880   -7.186880
  H     -2.145130   -6.696490   -6.137310
  H     -2.324440   -4.987900   -5.713210
  H     -1.273080   -8.222220  -10.743840
  H     -2.008380   -8.691980  -12.295450
  H      0.695610   -7.291170  -12.026480
  H      0.471630   -9.028650  -12.296190
  H     -0.039770   -7.861690  -13.520990
  H     -4.152030   -4.865010  -13.635740
  H     -2.426100    0.469770  -14.151060
  H      1.614440   -2.316720  -13.280260
  H      0.845950   -5.020720   -3.199940
  H     -0.207260   -5.601010   -4.486460
  H      1.503070   -6.054640   -4.461250

 Total Charge           Charge          ....    0
 Multiplicity           Mult            ....    1
 Number of Electrons    NEL             ....  526
 Basis Dimension        Dim             .... 1144

ORBITAL ENERGIES
----------------

  NO   OCC          E(Eh)            E(eV)
   0   2.0000     -89.037552     -2422.8350
   1   2.0000     -89.007454     -2422.0159
   2   2.0000     -89.002586     -2421.8835
   3   2.0000     -88.929912     -2419.9059
   4   2.0000     -88.920888     -2419.6604
   5   2.0000     -24.843266      -676.0196
   6   2.0000     -24.841369      -675.9680
   7   2.0000     -24.833710      -675.7596
   8   2.0000     -24.831616      -675.7026
   9   2.0000     -19.273489      -524.4583
  10   2.0000     -19.260496      -524.1048
  11   2.0000     -14.539917      -395.6513
  12   2.0000     -14.527163      -395.3042
  13   2.0000     -14.476712      -393.9314
  14   2.0000     -14.470098      -393.7514
  15   2.0000     -14.467030      -393.6679
  16   2.0000     -14.459820      -393.4717
  17   2.0000     -14.451473      -393.2446
  18   2.0000     -14.450518      -393.2186
  19   2.0000     -10.429577      -283.8032
  20   2.0000     -10.429030      -283.7883
  21   2.0000     -10.420546      -283.5575
  22   2.0000     -10.419324      -283.5242
  23   2.0000     -10.418862      -283.5116
  24   2.0000     -10.408674      -283.2344
  25   2.0000     -10.402298      -283.0609
  26   2.0000     -10.393281      -282.8156
  27   2.0000     -10.393263      -282.8151
  28   2.0000     -10.389941      -282.7247
  29   2.0000     -10.389668      -282.7173
  30   2.0000     -10.381642      -282.4988
  31   2.0000     -10.381549      -282.4963
  32   2.0000     -10.381448      -282.4936
  33   2.0000     -10.380540      -282.4688
  34   2.0000     -10.375673      -282.3364
  35   2.0000     -10.373175      -282.2684
  36   2.0000     -10.372449      -282.2487
  37   2.0000     -10.371339      -282.2185
  38   2.0000     -10.368015      -282.1280
  39   2.0000     -10.367367      -282.1104
  40   2.0000     -10.365101      -282.0487
  41   2.0000     -10.361759      -281.9578
  42   2.0000     -10.361482      -281.9503
  43   2.0000     -10.360899      -281.9344
  44   2.0000     -10.359304      -281.8910
  45   2.0000     -10.358144      -281.8594
  46   2.0000     -10.357734      -281.8483
  47   2.0000     -10.357588      -281.8443
  48   2.0000     -10.353183      -281.7244
  49   2.0000     -10.352965      -281.7185
  50   2.0000     -10.352014      -281.6926
  51   2.0000     -10.351454      -281.6774
  52   2.0000     -10.351223      -281.6711
  53   2.0000     -10.350965      -281.6641
  54   2.0000     -10.350751      -281.6583
  55   2.0000     -10.349190      -281.6158
  56   2.0000     -10.348317      -281.5920
  57   2.0000     -10.347255      -281.5631
  58   2.0000     -10.343826      -281.4698
  59   2.0000     -10.342124      -281.4235
  60   2.0000     -10.341804      -281.4148
  61   2.0000     -10.340546      -281.3806
  62   2.0000     -10.338831      -281.3339
  63   2.0000     -10.336102      -281.2596
  64   2.0000     -10.328689      -281.0579
  65   2.0000     -10.327411      -281.0232
  66   2.0000     -10.325017      -280.9580
  67   2.0000     -10.320792      -280.8430
  68   2.0000     -10.309933      -280.5475
  69   2.0000     -10.305204      -280.4189
  70   2.0000     -10.286198      -279.9017
  71   2.0000      -8.148623      -221.7353
  72   2.0000      -8.118213      -220.9078
  73   2.0000      -8.115223      -220.8264
  74   2.0000      -8.044161      -218.8928
  75   2.0000      -8.034104      -218.6191
  76   2.0000      -6.110368      -166.2716
  77   2.0000      -6.102318      -166.0525
  78   2.0000      -6.100599      -166.0057
  79   2.0000      -6.078272      -165.3982
  80   2.0000      -6.075346      -165.3186
  81   2.0000      -6.073542      -165.2695
  82   2.0000      -6.071290      -165.2082
  83   2.0000      -6.070070      -165.1750
  84   2.0000      -6.066280      -165.0719
  85   2.0000      -6.003204      -163.3555
  86   2.0000      -6.002730      -163.3426
  87   2.0000      -5.993693      -163.0967
  88   2.0000      -5.993370      -163.0879
  89   2.0000      -5.992543      -163.0654
  90   2.0000      -5.983680      -162.8242
  91   2.0000      -1.373083       -37.3635
  92   2.0000      -1.363128       -37.0926
  93   2.0000      -1.357983       -36.9526
  94   2.0000      -1.348011       -36.6812
  95   2.0000      -1.191364       -32.4187
  96   2.0000      -1.178257       -32.0620
  97   2.0000      -1.170417       -31.8487
  98   2.0000      -1.157867       -31.5072
  99   2.0000      -1.155875       -31.4530
 100   2.0000      -1.072846       -29.1936
 101   2.0000      -1.065188       -28.9852
 102   2.0000      -1.060178       -28.8489
 103   2.0000      -1.054324       -28.6896
 104   2.0000      -1.043775       -28.4025
 105   2.0000      -1.041067       -28.3289
 106   2.0000      -1.031912       -28.0797
 107   2.0000      -1.020907       -27.7803
 108   2.0000      -1.014996       -27.6194
 109   2.0000      -1.010330       -27.4925
 110   2.0000      -1.009570       -27.4718
 111   2.0000      -0.999574       -27.1998
 112   2.0000      -0.991164       -26.9709
 113   2.0000      -0.978828       -26.6353
 114   2.0000      -0.958541       -26.0832
 115   2.0000      -0.952347       -25.9147
 116   2.0000      -0.948118       -25.7996
 117   2.0000      -0.943793       -25.6819
 118   2.0000      -0.935827       -25.4652
 119   2.0000      -0.932281       -25.3687
 120   2.0000      -0.925309       -25.1789
 121   2.0000      -0.923288       -25.1239
 122   2.0000      -0.912571       -24.8323
 123   2.0000      -0.907502       -24.6944
 124   2.0000      -0.896985       -24.4082
 125   2.0000      -0.890546       -24.2330
 126   2.0000      -0.882432       -24.0122
 127   2.0000      -0.878153       -23.8957
 128   2.0000      -0.867117       -23.5955
 129   2.0000      -0.850691       -23.1485
 130   2.0000      -0.843805       -22.9611
 131   2.0000      -0.832740       -22.6600
 132   2.0000      -0.825891       -22.4736
 133   2.0000      -0.824169       -22.4268
 134   2.0000      -0.813175       -22.1276
 135   2.0000      -0.811378       -22.0787
 136   2.0000      -0.800532       -21.7836
 137   2.0000      -0.797821       -21.7098
 138   2.0000      -0.792571       -21.5669
 139   2.0000      -0.768970       -20.9247
 140   2.0000      -0.766141       -20.8478
 141   2.0000      -0.763437       -20.7742
 142   2.0000      -0.757100       -20.6017
 143   2.0000      -0.754033       -20.5183
 144   2.0000      -0.743000       -20.2180
 145   2.0000      -0.740507       -20.1502
 146   2.0000      -0.737998       -20.0820
 147   2.0000      -0.731758       -19.9121
 148   2.0000      -0.720308       -19.6006
 149   2.0000      -0.717795       -19.5322
 150   2.0000      -0.704895       -19.1812
 151   2.0000      -0.699285       -19.0285
 152   2.0000      -0.696377       -18.9494
 153   2.0000      -0.696143       -18.9430
 154   2.0000      -0.690214       -18.7817
 155   2.0000      -0.681282       -18.5386
 156   2.0000      -0.678529       -18.4637
 157   2.0000      -0.677228       -18.4283
 158   2.0000      -0.670957       -18.2577
 159   2.0000      -0.663254       -18.0481
 160   2.0000      -0.660489       -17.9728
 161   2.0000      -0.655511       -17.8374
 162   2.0000      -0.650738       -17.7075
 163   2.0000      -0.645291       -17.5593
 164   2.0000      -0.642548       -17.4846
 165   2.0000      -0.638406       -17.3719
 166   2.0000      -0.633456       -17.2372
 167   2.0000      -0.633135       -17.2285
 168   2.0000      -0.631730       -17.1902
 169   2.0000      -0.623404       -16.9637
 170   2.0000      -0.620973       -16.8975
 171   2.0000      -0.613458       -16.6930
 172   2.0000      -0.607540       -16.5320
 173   2.0000      -0.604159       -16.4400
 174   2.0000      -0.602103       -16.3840
 175   2.0000      -0.599132       -16.3032
 176   2.0000      -0.595055       -16.1923
 177   2.0000      -0.592075       -16.1112
 178   2.0000      -0.589790       -16.0490
 179   2.0000      -0.589173       -16.0322
 180   2.0000      -0.585495       -15.9321
 181   2.0000      -0.582973       -15.8635
 182   2.0000      -0.582297       -15.8451
 183   2.0000      -0.581186       -15.8149
 184   2.0000      -0.579543       -15.7702
 185   2.0000      -0.576380       -15.6841
 186   2.0000      -0.574644       -15.6369
 187   2.0000      -0.571205       -15.5433
 188   2.0000      -0.567908       -15.4536
 189   2.0000      -0.566958       -15.4277
 190   2.0000      -0.565479       -15.3875
 191   2.0000      -0.562025       -15.2935
 192   2.0000      -0.559778       -15.2323
 193   2.0000      -0.556511       -15.1434
 194   2.0000      -0.555313       -15.1108
 195   2.0000      -0.547313       -14.8931
 196   2.0000      -0.544265       -14.8102
 197   2.0000      -0.540632       -14.7113
 198   2.0000      -0.537738       -14.6326
 199   2.0000      -0.537594       -14.6287
 200   2.0000      -0.536161       -14.5897
 201   2.0000      -0.532323       -14.4852
 202   2.0000      -0.528746       -14.3879
 203   2.0000      -0.528394       -14.3783
 204   2.0000      -0.524712       -14.2781
 205   2.0000      -0.521569       -14.1926
 206   2.0000      -0.519387       -14.1332
 207   2.0000      -0.517883       -14.0923
 208   2.0000      -0.514445       -13.9988
 209   2.0000      -0.511041       -13.9061
 210   2.0000      -0.505902       -13.7663
 211   2.0000      -0.503253       -13.6942
 212   2.0000      -0.500161       -13.6101
 213   2.0000      -0.499867       -13.6021
 214   2.0000      -0.498814       -13.5734
 215   2.0000      -0.497956       -13.5501
 216   2.0000      -0.497572       -13.5396
 217   2.0000      -0.494170       -13.4471
 218   2.0000      -0.492537       -13.4026
 219   2.0000      -0.489384       -13.3168
 220   2.0000      -0.488523       -13.2934
 221   2.0000      -0.486479       -13.2378
 222   2.0000      -0.483233       -13.1494
 223   2.0000      -0.480900       -13.0860
 224   2.0000      -0.477975       -13.0064
 225   2.0000      -0.476984       -12.9794
 226   2.0000      -0.475618       -12.9422
 227   2.0000      -0.474454       -12.9106
 228   2.0000      -0.469104       -12.7650
 229   2.0000      -0.466787       -12.7019
 230   2.0000      -0.464728       -12.6459
 231   2.0000      -0.464258       -12.6331
 232   2.0000      -0.461991       -12.5714
 233   2.0000      -0.460123       -12.5206
 234   2.0000      -0.456986       -12.4352
 235   2.0000      -0.453970       -12.3531
 236   2.0000      -0.452194       -12.3048
 237   2.0000      -0.448957       -12.2167
 238   2.0000      -0.446333       -12.1454
 239   2.0000      -0.445662       -12.1271
 240   2.0000      -0.443976       -12.0812
 241   2.0000      -0.435676       -11.8553
 242   2.0000      -0.435144       -11.8409
 243   2.0000      -0.424362       -11.5475
 244   2.0000      -0.414288       -11.2734
 245   2.0000      -0.406006       -11.0480
 246   2.0000      -0.403991       -10.9932
 247   2.0000      -0.400693       -10.9034
 248   2.0000      -0.392290       -10.6748
 249   2.0000      -0.387227       -10.5370
 250   2.0000      -0.385317       -10.4850
 251   2.0000      -0.383760       -10.4426
 252   2.0000      -0.375684       -10.2229
 253   2.0000      -0.366361        -9.9692
 254   2.0000      -0.360441        -9.8081
 255   2.0000      -0.356767        -9.7081
 256   2.0000      -0.344475        -9.3736
 257   2.0000      -0.341405        -9.2901
 258   2.0000      -0.324470        -8.8293
 259   2.0000      -0.322531        -8.7765
 260   2.0000      -0.313158        -8.5215
 261   2.0000      -0.297397        -8.0926
 262   2.0000      -0.286987        -7.8093
 263   0.0000      -0.108232        -2.9451
 264   0.0000      -0.080019        -2.1774
 265   0.0000      -0.060275        -1.6402
 266   0.0000      -0.052570        -1.4305
 267   0.0000      -0.037601        -1.0232

MULLIKEN ATOMIC CHARGES
-----------------------
   0 C :    0.231569
   1 O :   -0.202075
   2 C :   -0.058227
   3 C :   -0.093264
   4 C :    0.242772
   5 F :   -0.181281
   6 C :    0.246796
   7 F :   -0.176994
   8 C :   -0.083554
   9 C :    0.024441
  10 C :    0.291581
  11 C :   -0.381003
  12 C :   -0.113890
  13 N :    0.096626
  14 C :   -0.130764
  15 N :    0.113857
  16 C :   -0.145501
  17 C :    0.003899
  18 C :   -0.104774
  19 S :    0.195579
  20 C :   -0.027060
  21 C :   -0.088790
  22 C :   -0.083734
  23 C :    0.001896
  24 C :   -0.010822
  25 S :    0.216069
  26 C :   -0.055461
  27 C :    0.049413
  28 N :   -0.240527
  29 C :    0.034392
  30 C :    0.097338
  31 C :   -0.100723
  32 C :    0.025536
  33 N :   -0.299225
  34 S :    0.497341
  35 N :   -0.266494
  36 C :    0.009974
  37 C :   -0.056159
  38 C :    0.128799
  39 N :   -0.275223
  40 C :    0.066381
  41 C :   -0.052515
  42 C :    0.080232
  43 C :   -0.024541
  44 S :   -0.129662
  45 C :    0.037780
  46 C :    0.015965
  47 S :   -0.092921
  48 C :   -0.112688
  49 C :   -0.138753
  50 C :    0.038888
  51 C :   -0.013427
  52 C :    0.025009
  53 C :   -0.069032
  54 C :    0.274983
  55 C :   -0.356298
  56 C :   -0.128967
  57 N :    0.119217
  58 C :   -0.135099
  59 N :    0.122045
  60 C :    0.034410
  61 C :   -0.076488
  62 C :    0.245926
  63 F :   -0.178551
  64 C :    0.242982
  65 F :   -0.184877
  66 C :   -0.089474
  67 C :   -0.054634
  68 C :    0.211877
  69 O :   -0.159696
  70 C :   -0.040541
  71 H :    0.040754
  72 H :    0.046380
  73 H :   -0.006810
  74 H :    0.042385
  75 H :    0.063407
  76 H :    0.037007
  77 H :    0.058446
  78 H :    0.032560
  79 H :    0.063619
  80 H :    0.064967
  81 H :    0.066965
  82 H :    0.022647
  83 H :    0.058416
  84 H :    0.054946
  85 H :    0.051413
  86 H :    0.026918
  87 H :    0.042956
  88 H :    0.034949
  89 H :    0.036746
  90 H :    0.040703
  91 H :    0.076075
  92 H :    0.044310
  93 H :    0.038412
  94 H :    0.054967
  95 H :    0.039321
  96 H :    0.057677
Sum of atomic charges:    0.0000000

LOEWDIN ATOMIC CHARGES
----------------------
   0 C :    0.093532
   1 O :   -0.169519
   2 C :   -0.050793
   3 C :   -0.006378
   4 C :    0.075342
   5 F :   -0.047517
   6 C :    0.079097
   7 F :   -0.044592
   8 C :   -0.016129
   9 C :   -0.018673
  10 C :    0.081395
  11 C :   -0.147009
  12 C :   -0.012004
  13 N :   -0.054604
  14 C :   -0.015581
  15 N :   -0.048360
  16 C :   -0.126586
  17 C :    0.068105
  18 C :   -0.192238
  19 S :    0.483079
  20 C :   -0.198360
  21 C :   -0.191557
  22 C :   -0.009289
  23 C :   -0.034386
  24 C :   -0.043427
  25 S :    0.425640
  26 C :   -0.171822
  27 C :   -0.028793
  28 N :    0.040014
  29 C :    0.038388
  30 C :   -0.000696
  31 C :   -0.052215
  32 C :   -0.060118
  33 N :   -0.286020
  34 S :    0.616937
  35 N :   -0.265717
  36 C :   -0.047153
  37 C :   -0.103297
  38 C :    0.056510
  39 N :    0.008257
  40 C :    0.039826
  41 C :   -0.064396
  42 C :    0.016433
  43 C :   -0.145439
  44 S :    0.058271
  45 C :    0.042797
  46 C :   -0.044491
  47 S :    0.074159
  48 C :   -0.115879
  49 C :   -0.046915
  50 C :   -0.025267
  51 C :   -0.047505
  52 C :    0.054439
  53 C :   -0.077552
  54 C :    0.072655
  55 C :   -0.129150
  56 C :   -0.012162
  57 N :   -0.044804
  58 C :   -0.012630
  59 N :   -0.042333
  60 C :   -0.019482
  61 C :   -0.013461
  62 C :    0.081305
  63 F :   -0.045831
  64 C :    0.076024
  65 F :   -0.050535
  66 C :   -0.006012
  67 C :   -0.050136
  68 C :    0.097354
  69 O :   -0.132934
  70 C :   -0.067211
  71 H :    0.055143
  72 H :    0.054621
  73 H :    0.048232
  74 H :    0.035364
  75 H :    0.040496
  76 H :    0.028570
  77 H :    0.036928
  78 H :    0.025602
  79 H :    0.031767
  80 H :    0.035972
  81 H :    0.040761
  82 H :    0.022416
  83 H :    0.037465
  84 H :    0.036537
  85 H :    0.028663
  86 H :    0.029049
  87 H :    0.030486
  88 H :    0.026937
  89 H :    0.026460
  90 H :    0.026427
  91 H :    0.057074
  92 H :    0.054591
  93 H :    0.054354
  94 H :    0.024862
  95 H :    0.028648
  96 H :    0.039978

  Mayer bond orders larger than 0.100000
B(  0-C ,  1-O ) :   2.1228 B(  0-C ,  2-C ) :   0.9740 B(  0-C , 16-C ) :   0.9777
B(  2-C ,  3-C ) :   1.3401 B(  2-C ,  9-C ) :   1.3433 B(  3-C ,  4-C ) :   1.3303
B(  3-C , 71-H ) :   1.0156 B(  4-C ,  5-F ) :   1.1029 B(  4-C ,  6-C ) :   1.2915
B(  6-C ,  7-F ) :   1.1171 B(  6-C ,  8-C ) :   1.3487 B(  8-C ,  9-C ) :   1.3370
B(  8-C , 72-H ) :   0.9885 B(  9-C , 10-C ) :   1.0149 B( 10-C , 11-C ) :   1.6383
B( 10-C , 16-C ) :   1.0989 B( 11-C , 12-C ) :   1.1379 B( 11-C , 14-C ) :   1.1290
B( 12-C , 13-N ) :   2.9514 B( 14-C , 15-N ) :   2.9740 B( 16-C , 17-C ) :   1.5378
B( 17-C , 18-C ) :   1.3052 B( 17-C , 73-H ) :   0.9262 B( 18-C , 19-S ) :   1.0496
B( 18-C , 22-C ) :   1.3959 B( 19-S , 20-C ) :   1.0352 B( 20-C , 21-C ) :   1.4141
B( 20-C , 27-C ) :   1.3098 B( 21-C , 22-C ) :   1.4424 B( 21-C , 25-S ) :   1.0261
B( 22-C , 23-C ) :   1.0520 B( 23-C , 24-C ) :   1.0897 B( 23-C , 74-H ) :   0.9324
B( 23-C , 75-H ) :   0.9130 B( 24-C , 76-H ) :   0.9697 B( 24-C , 77-H ) :   0.9708
B( 24-C , 78-H ) :   0.9727 B( 25-S , 26-C ) :   1.0202 B( 26-C , 27-C ) :   1.4035
B( 26-C , 31-C ) :   1.4014 B( 27-C , 28-N ) :   1.1604 B( 28-N , 29-C ) :   0.9170
B( 28-N , 30-C ) :   1.1553 B( 29-C , 70-C ) :   1.0840 B( 29-C , 79-H ) :   0.9584
B( 29-C , 80-H ) :   0.9495 B( 30-C , 31-C ) :   1.3613 B( 30-C , 38-C ) :   1.1706
B( 31-C , 32-C ) :   1.1388 B( 32-C , 33-N ) :   1.6092 B( 32-C , 36-C ) :   1.1504
B( 33-N , 34-S ) :   1.2376 B( 33-N , 35-N ) :   0.1317 B( 34-S , 35-N ) :   1.2421
B( 35-N , 36-C ) :   1.6003 B( 36-C , 37-C ) :   1.1447 B( 37-C , 38-C ) :   1.4084
B( 37-C , 43-C ) :   1.2046 B( 38-C , 39-N ) :   1.1148 B( 39-N , 40-C ) :   0.9421
B( 39-N , 42-C ) :   1.1215 B( 40-C , 41-C ) :   1.0988 B( 40-C , 81-H ) :   0.9372
B( 40-C , 82-H ) :   0.9490 B( 41-C , 83-H ) :   0.9633 B( 41-C , 84-H ) :   0.9690
B( 41-C , 85-H ) :   0.9630 B( 42-C , 43-C ) :   1.0747 B( 42-C , 46-C ) :   1.2473
B( 42-C , 49-C ) :   0.1220 B( 43-C , 44-S ) :   1.6366 B( 44-S , 46-C ) :   0.1078
B( 45-C , 46-C ) :   1.8030 B( 45-C , 49-C ) :   1.4180 B( 47-S , 48-C ) :   1.6888
B( 48-C , 49-C ) :   1.1502 B( 48-C , 52-C ) :   1.0121 B( 49-C , 50-C ) :   1.0442
B( 50-C , 51-C ) :   1.0888 B( 50-C , 86-H ) :   0.9424 B( 50-C , 87-H ) :   0.9128
B( 51-C , 88-H ) :   0.9681 B( 51-C , 89-H ) :   0.9734 B( 51-C , 90-H ) :   0.9683
B( 52-C , 53-C ) :   1.7839 B( 52-C , 91-H ) :   0.9226 B( 53-C , 54-C ) :   1.0358
B( 53-C , 68-C ) :   0.9255 B( 54-C , 55-C ) :   1.6907 B( 54-C , 60-C ) :   1.0274
B( 55-C , 56-C ) :   1.1236 B( 55-C , 58-C ) :   1.1341 B( 56-C , 57-N ) :   2.9776
B( 58-C , 59-N ) :   2.9758 B( 60-C , 61-C ) :   1.3265 B( 60-C , 67-C ) :   1.3363
B( 61-C , 62-C ) :   1.3574 B( 61-C , 92-H ) :   0.9882 B( 62-C , 63-F ) :   1.1150
B( 62-C , 64-C ) :   1.2863 B( 64-C , 65-F ) :   1.0998 B( 64-C , 66-C ) :   1.3360
B( 66-C , 67-C ) :   1.3362 B( 66-C , 93-H ) :   1.0143 B( 67-C , 68-C ) :   0.9670
B( 68-C , 69-O ) :   2.2072 B( 70-C , 94-H ) :   0.9575 B( 70-C , 95-H ) :   0.9666
B( 70-C , 96-H ) :   0.9676

-----------------------------------------------------------------------------
         ABSORPTION SPECTRUM VIA TRANSITION ELECTRIC DIPOLE MOMENTS
-----------------------------------------------------------------------------
State   Energy  Wavelength   fosc         T2         TX        TY        TZ
        (cm-1)    (nm)                  (au**2)     (au)      (au)      (au)
-----------------------------------------------------------------------------
   0   13646.8    732.8   0.004663741   0.11251   0.02891  -0.18624  -0.27746
   1   17015.5    587.7   0.192094349   3.71661  -0.24911  -1.01771  -1.61828
   2   18703.2    534.7   0.345578592   6.08284   0.05227  -2.05185  -1.36748
   3   20032.2    499.2   2.462332750  40.46629  -2.68902  -0.17648  -5.76232
   4   24542.8    407.5   0.080771774   1.08346  -0.32138   0.68756  -0.71235
   5   25898.3    386.1   0.188257482   2.39308  -0.87111   0.17722  -1.26604
   6   26981.1    370.6   0.236043237   2.88010   0.99646  -1.36134   0.18417
   7   27271.7    366.7   0.030923150   0.37329  -0.20414   0.54696   0.18014
   8   27738.7    360.5   0.023345249   0.27707  -0.35978   0.36428  -0.12218
   9   28616.1    349.5   0.021456054   0.24684   0.27119  -0.41120  -0.06491
  10   29541.6    338.5   0.111984008   1.24795   0.67880  -0.70445   0.53939
  11   29600.3    337.8   0.035874159   0.39899   0.12314  -0.61931  -0.01662
  12   30107.6    332.1   0.072168604   0.78913   0.40296  -0.07351   0.78826
  13   30782.7    324.9   0.001352935   0.01447   0.05414  -0.10741  -0.00129
  14   30852.7    324.1   0.081596333   0.87067   0.03339  -0.92014  -0.15134
  15   31109.5    321.4   0.018273657   0.19338   0.14813  -0.39634  -0.11979
  16   31817.1    314.3   0.064922085   0.67175   0.43481  -0.69069   0.07512
  17   32426.4    308.4   0.060045047   0.60961   0.19461   0.46577   0.59565
  18   32673.8    306.1   0.141738349   1.42811  -0.51285   1.07702   0.07159
  19   33277.4    300.5   0.126932466   1.25574   0.47881  -0.79153  -0.63242
  20   33515.4    298.4   0.028092371   0.27594   0.03478  -0.48775  -0.19191
  21   34063.9    293.6   0.021556015   0.20833   0.19839   0.13931   0.38673
  22   34548.2    289.5   0.124305151   1.18451  -1.05972  -0.19959  -0.14725
  23   35162.5    284.4   0.320796138   3.00349   1.10900  -1.32773  -0.10366
  24   35519.8    281.5   0.175748505   1.62891   1.21456   0.09636   0.38007
  25   35648.0    280.5   0.466719287   4.31019  -0.86056   1.85596   0.35362
  26   36234.4    276.0   0.023478015   0.21331  -0.07663   0.39587  -0.22523
  27   36294.8    275.5   0.000999697   0.00907   0.09265   0.00025   0.02198
  28   36606.0    273.2   0.001246304   0.01121  -0.10254   0.01055  -0.02412
  29   37248.3    268.5   0.039633926   0.35030   0.35379  -0.15860  -0.44719
  30   37422.0    267.2   0.022863298   0.20113  -0.20106   0.02063   0.40035
  31   37690.3    265.3   0.458394087   4.00392  -0.66822   1.72759   0.75687
  32   37787.5    264.6   0.131012697   1.14141   0.26610  -1.00720  -0.23697
  33   37930.4    263.6   0.137213246   1.19092  -1.08616   0.10546  -0.00803
  34   38979.6    256.5   0.040897969   0.34541  -0.32183  -0.23492   0.43203
  35   39060.1    256.0   0.153158932   1.29088   0.11491   0.61712   0.94702
  36   39731.7    251.7   0.343856292   2.84915   0.65159  -1.40688  -0.66729
  37   40002.1    250.0   0.104458560   0.85968   0.67893   0.16175   0.61039
  38   40316.1    248.0   0.002089357   0.01706  -0.07758  -0.08169   0.06610

Dispersion correction           -0.067851437
FINAL SINGLE POINT ENERGY     -4972.097308299097

DIPOLE MOMENT
-------------
                                X             Y             Z
Electronic contribution:     10.76631      29.77671      -3.65072
Nuclear contribution   :     -8.62243     -31.89503       5.37086
                        -----------------------------------------
Total Dipole Moment    :      2.14387      -2.11832       1.72014
                        -----------------------------------------
Magnitude (a.u.)       :      3.47021
Magnitude (Debye)      :      8.82058

Rotational constants in cm-1:     0.001698     0.000327     0.000297
Rotational constants in MHz :    50.897657     9.809104     8.906950

                             ****ORCA TERMINATED NORMALLY****
TOTAL RUN TIME: 0 days 0 hours 10 minutes 51 seconds 298 msec
