                         Program Version 4.2.0 -  RELEASE  -
|  1> # ORCA input file
|  2> # SCF done       -180.687099540356          0.000435009680
|  3> ! wb97x-d3 def2-SVP def2/J RIJCOSX Grid4 TightSCF
|  4> %maxcore 5000
|  5> %tddft
|  6>     Mode sTDA
|  7>     Ethresh 5.0
|  8>     maxcore 5000
|  9> end
| 10>
| 11> %pal
| 12>   nprocs 6
| 13>   end
| 14> * xyz 0 1
| 15>    C       -6.14170        -3.06577        -0.86335
| 16>    O       -7.04330        -2.25563        -0.72658
| 17>    C       -6.25078        -4.39043        -1.50192
| 18>    C       -7.35791        -4.99158        -2.06632
| 19>    C       -7.20738        -6.25797        -2.61452
| 20>    C       -5.97417        -6.89196        -2.58965
| 21>    C       -4.85821        -6.28921        -2.02225
| 22>    C       -4.99664        -5.02494        -1.47250
| 23>    C       -4.03523        -4.13732        -0.81614
| 24>    C       -2.70498        -4.41715        -0.62940
| 25>    C       -1.76019        -3.57184        -0.01223
| 26>    N       -0.92789        -2.94546         0.47418
| 27>    C       -2.08008        -5.61223        -1.04301
| 28>    N       -1.50332        -6.55687        -1.34911
| 29>    C       -4.74712        -2.93519        -0.43426
| 30>    C       -4.19637        -1.86436         0.22853
| 31>    C       -4.75061        -0.64436         0.62356
| 32>    S       -6.41086        -0.13633         0.30759
| 33>    C       -6.10743         1.38088         1.06552
| 34>    C       -4.78841         1.46982         1.54598
| 35>    C       -4.01549         0.34366         1.30334
| 36>    S       -4.41893         3.00428         2.30730
| 37>    C       -6.02898         3.53111         1.95353
| 38>    C       -6.81563         2.56130         1.31262
| 39>    N       -8.05597         3.07502         1.04590
| 40>    C       -8.97999         2.43527         0.13629
| 41>    C       -9.63513         1.19414         0.73728
| 42>    C       -8.06936         4.38092         1.48590
| 43>    C       -6.79840         4.69863         2.04685
| 44>    C       -6.52178         6.01972         2.44776
| 45>    N       -5.45734         6.60551         3.00249
| 46>    N       -5.78232         7.87262         3.05414
| 47>    C       -4.92949         8.85747         3.65391
| 48>    C       -5.57551         9.39227         4.92826
| 49>    N       -6.95587         8.20108         2.58500
| 50>    C       -7.48371         7.04073         2.18963
| 51>    C       -8.74231         6.70456         1.67436
| 52>    C       -9.07586         5.37155         1.42406
| 53>    N      -10.43102         5.23845         1.08157
| 54>    C      -11.29461         4.23742         1.69013
| 55>    C      -12.38494         3.78530         0.72707
| 56>    C      -10.95393         6.54058         1.01700
| 57>    C       -9.89544         7.54814         1.39452
| 58>    S      -10.34394         7.60117        -0.38820
| 59>    C      -12.75630         8.05255         1.77114
| 60>    C      -12.22152         7.00364         1.44613
| 61>    S      -10.06573         8.96983         2.52774
| 62>    C      -11.58495         9.94345         2.32050
| 63>    C      -12.83174         9.40434         2.09079
| 64>    C      -11.40750        11.35532         2.37452
| 65>    C      -10.38270        12.08686         2.89633
| 66>    C      -10.16791        13.50620         2.67315
| 67>    C      -10.83355        14.30715         1.78269
| 68>    C      -10.56590        15.68032         1.59506
| 69>    N      -10.40912        16.79967         1.39481
| 70>    C      -11.87031        13.89129         0.92051
| 71>    N      -12.71423        13.63670         0.18349
| 72>    C       -9.05562        13.92464         3.52300
| 73>    C       -8.44276        15.15692         3.69413
| 74>    C       -7.38567        15.25300         4.58919
| 75>    C       -6.94241        14.15224         5.30880
| 76>    C       -7.55236        12.91612         5.15033
| 77>    C       -8.59805        12.81401         4.25352
| 78>    C       -9.40709        11.62702         3.91635
| 79>    O       -9.35507        10.54294         4.45407
| 80>    C       -2.60052         0.21711         1.76460
| 81>    C       -2.52611        -0.54147         3.09255
| 82>    C      -14.12270        10.15578         2.02056
| 83>    C      -14.45554        10.51650         0.56806
| 84>    H       -8.30753        -4.47883        -2.07434
| 85>    H       -8.05474        -6.75378        -3.06372
| 86>    H       -5.87398        -7.87698        -3.02031
| 87>    H       -3.91370        -6.80778        -2.01810
| 88>    H       -3.15287        -1.96276         0.49446
| 89>    H       -9.72376         3.17455        -0.15942
| 90>    H       -8.42253         2.13543        -0.75849
| 91>    H       -8.89529         0.41630         0.90311
| 92>    H      -10.11892         1.41459         1.68572
| 93>    H      -10.38140         0.81028         0.04777
| 94>    H       -3.97424         8.37183         3.85882
| 95>    H       -4.78802         9.67109         2.93716
| 96>    H       -5.64807         8.60563         5.67550
| 97>    H       -4.98104        10.20715         5.33215
| 98>    H       -6.57755         9.75014         4.70157
| 99>    H      -10.67255         3.40119         2.00322
|100>    H      -11.76169         4.66296         2.59071
|101>    H      -11.95909         3.35109        -0.17367
|102>    H      -13.01344         3.04179         1.20973
|103>    H      -13.00675         4.62966         0.43856
|104>    H      -12.19369        11.91194         1.88100
|105>    H       -8.77008        16.03064         3.15499
|106>    H       -6.90228        16.20838         4.72783
|107>    H       -6.11854        14.26127         5.99800
|108>    H       -7.22866        12.04899         5.70494
|109>    H       -1.98867        -0.29539         1.02060
|110>    H       -2.19742         1.22204         1.90520
|111>    H       -2.92373        -1.54788         2.98430
|112>    H       -1.49217        -0.61313         3.41770
|113>    H       -3.09884        -0.02188         3.85728
|114>    H      -14.91124         9.50989         2.41448
|115>    H      -14.08616        11.05697         2.63283
|116>    H      -14.46247         9.62326        -0.05251
|117>    H      -15.43584        10.98319         0.52024
|118>    H      -13.72558        11.21268         0.16202
|119> *
|120>
|121>                          ****END OF INPUT****

CARTESIAN COORDINATES (ANGSTROEM)
---------------------------------
  C     -6.141700   -3.065770   -0.863350
  O     -7.043300   -2.255630   -0.726580
  C     -6.250780   -4.390430   -1.501920
  C     -7.357910   -4.991580   -2.066320
  C     -7.207380   -6.257970   -2.614520
  C     -5.974170   -6.891960   -2.589650
  C     -4.858210   -6.289210   -2.022250
  C     -4.996640   -5.024940   -1.472500
  C     -4.035230   -4.137320   -0.816140
  C     -2.704980   -4.417150   -0.629400
  C     -1.760190   -3.571840   -0.012230
  N     -0.927890   -2.945460    0.474180
  C     -2.080080   -5.612230   -1.043010
  N     -1.503320   -6.556870   -1.349110
  C     -4.747120   -2.935190   -0.434260
  C     -4.196370   -1.864360    0.228530
  C     -4.750610   -0.644360    0.623560
  S     -6.410860   -0.136330    0.307590
  C     -6.107430    1.380880    1.065520
  C     -4.788410    1.469820    1.545980
  C     -4.015490    0.343660    1.303340
  S     -4.418930    3.004280    2.307300
  C     -6.028980    3.531110    1.953530
  C     -6.815630    2.561300    1.312620
  N     -8.055970    3.075020    1.045900
  C     -8.979990    2.435270    0.136290
  C     -9.635130    1.194140    0.737280
  C     -8.069360    4.380920    1.485900
  C     -6.798400    4.698630    2.046850
  C     -6.521780    6.019720    2.447760
  N     -5.457340    6.605510    3.002490
  N     -5.782320    7.872620    3.054140
  C     -4.929490    8.857470    3.653910
  C     -5.575510    9.392270    4.928260
  N     -6.955870    8.201080    2.585000
  C     -7.483710    7.040730    2.189630
  C     -8.742310    6.704560    1.674360
  C     -9.075860    5.371550    1.424060
  N    -10.431020    5.238450    1.081570
  C    -11.294610    4.237420    1.690130
  C    -12.384940    3.785300    0.727070
  C    -10.953930    6.540580    1.017000
  C     -9.895440    7.548140    1.394520
  S    -10.343940    7.601170   -0.388200
  C    -12.756300    8.052550    1.771140
  C    -12.221520    7.003640    1.446130
  S    -10.065730    8.969830    2.527740
  C    -11.584950    9.943450    2.320500
  C    -12.831740    9.404340    2.090790
  C    -11.407500   11.355320    2.374520
  C    -10.382700   12.086860    2.896330
  C    -10.167910   13.506200    2.673150
  C    -10.833550   14.307150    1.782690
  C    -10.565900   15.680320    1.595060
  N    -10.409120   16.799670    1.394810
  C    -11.870310   13.891290    0.920510
  N    -12.714230   13.636700    0.183490
  C     -9.055620   13.924640    3.523000
  C     -8.442760   15.156920    3.694130
  C     -7.385670   15.253000    4.589190
  C     -6.942410   14.152240    5.308800
  C     -7.552360   12.916120    5.150330
  C     -8.598050   12.814010    4.253520
  C     -9.407090   11.627020    3.916350
  O     -9.355070   10.542940    4.454070
  C     -2.600520    0.217110    1.764600
  C     -2.526110   -0.541470    3.092550
  C    -14.122700   10.155780    2.020560
  C    -14.455540   10.516500    0.568060
  H     -8.307530   -4.478830   -2.074340
  H     -8.054740   -6.753780   -3.063720
  H     -5.873980   -7.876980   -3.020310
  H     -3.913700   -6.807780   -2.018100
  H     -3.152870   -1.962760    0.494460
  H     -9.723760    3.174550   -0.159420
  H     -8.422530    2.135430   -0.758490
  H     -8.895290    0.416300    0.903110
  H    -10.118920    1.414590    1.685720
  H    -10.381400    0.810280    0.047770
  H     -3.974240    8.371830    3.858820
  H     -4.788020    9.671090    2.937160
  H     -5.648070    8.605630    5.675500
  H     -4.981040   10.207150    5.332150
  H     -6.577550    9.750140    4.701570
  H    -10.672550    3.401190    2.003220
  H    -11.761690    4.662960    2.590710
  H    -11.959090    3.351090   -0.173670
  H    -13.013440    3.041790    1.209730
  H    -13.006750    4.629660    0.438560
  H    -12.193690   11.911940    1.881000
  H     -8.770080   16.030640    3.154990
  H     -6.902280   16.208380    4.727830
  H     -6.118540   14.261270    5.998000
  H     -7.228660   12.048990    5.704940
  H     -1.988670   -0.295390    1.020600
  H     -2.197420    1.222040    1.905200
  H     -2.923730   -1.547880    2.984300
  H     -1.492170   -0.613130    3.417700
  H     -3.098840   -0.021880    3.857280
  H    -14.911240    9.509890    2.414480
  H    -14.086160   11.056970    2.632830
  H    -14.462470    9.623260   -0.052510
  H    -15.435840   10.983190    0.520240
  H    -13.725580   11.212680    0.162020

 Total Charge           Charge          ....    0
 Multiplicity           Mult            ....    1
 Number of Electrons    NEL             ....  502
 Basis Dimension        Dim             .... 1157

ORBITAL ENERGIES
----------------

  NO   OCC          E(Eh)            E(eV)
   0   2.0000     -88.985377     -2421.4152
   1   2.0000     -88.981763     -2421.3169
   2   2.0000     -88.954620     -2420.5783
   3   2.0000     -88.939960     -2420.1793
   4   2.0000     -19.255673      -523.9735
   5   2.0000     -19.251871      -523.8700
   6   2.0000     -14.558161      -396.1477
   7   2.0000     -14.510602      -394.8536
   8   2.0000     -14.485520      -394.1710
   9   2.0000     -14.467960      -393.6932
  10   2.0000     -14.465267      -393.6199
  11   2.0000     -14.457545      -393.4098
  12   2.0000     -14.451956      -393.2577
  13   2.0000     -14.449413      -393.1885
  14   2.0000     -14.442092      -392.9893
  15   2.0000     -10.403285      -283.0878
  16   2.0000     -10.402760      -283.0735
  17   2.0000     -10.398133      -282.9476
  18   2.0000     -10.381846      -282.5044
  19   2.0000     -10.380913      -282.4790
  20   2.0000     -10.377381      -282.3829
  21   2.0000     -10.372830      -282.2591
  22   2.0000     -10.368899      -282.1521
  23   2.0000     -10.361767      -281.9580
  24   2.0000     -10.360845      -281.9329
  25   2.0000     -10.359925      -281.9079
  26   2.0000     -10.358651      -281.8732
  27   2.0000     -10.358621      -281.8724
  28   2.0000     -10.358540      -281.8702
  29   2.0000     -10.354508      -281.7605
  30   2.0000     -10.353089      -281.7219
  31   2.0000     -10.353048      -281.7208
  32   2.0000     -10.351189      -281.6702
  33   2.0000     -10.349546      -281.6255
  34   2.0000     -10.348842      -281.6063
  35   2.0000     -10.347063      -281.5579
  36   2.0000     -10.345600      -281.5181
  37   2.0000     -10.344170      -281.4792
  38   2.0000     -10.343443      -281.4594
  39   2.0000     -10.343060      -281.4490
  40   2.0000     -10.339168      -281.3431
  41   2.0000     -10.336966      -281.2831
  42   2.0000     -10.336152      -281.2610
  43   2.0000     -10.335272      -281.2371
  44   2.0000     -10.335109      -281.2326
  45   2.0000     -10.331429      -281.1325
  46   2.0000     -10.331240      -281.1273
  47   2.0000     -10.330788      -281.1150
  48   2.0000     -10.329920      -281.0914
  49   2.0000     -10.328236      -281.0456
  50   2.0000     -10.327821      -281.0343
  51   2.0000     -10.327362      -281.0218
  52   2.0000     -10.326953      -281.0107
  53   2.0000     -10.324699      -280.9493
  54   2.0000     -10.324289      -280.9382
  55   2.0000     -10.324041      -280.9314
  56   2.0000     -10.323787      -280.9245
  57   2.0000     -10.322964      -280.9021
  58   2.0000     -10.321562      -280.8640
  59   2.0000     -10.321180      -280.8536
  60   2.0000     -10.320702      -280.8406
  61   2.0000     -10.319977      -280.8208
  62   2.0000     -10.318543      -280.7818
  63   2.0000     -10.311707      -280.5958
  64   2.0000     -10.303619      -280.3757
  65   2.0000     -10.301302      -280.3127
  66   2.0000     -10.295324      -280.1500
  67   2.0000     -10.294366      -280.1239
  68   2.0000     -10.291902      -280.0569
  69   2.0000      -8.096377      -220.3136
  70   2.0000      -8.094606      -220.2654
  71   2.0000      -8.066569      -219.5025
  72   2.0000      -8.053971      -219.1597
  73   2.0000      -6.056452      -164.8044
  74   2.0000      -6.054686      -164.7564
  75   2.0000      -6.051741      -164.6762
  76   2.0000      -6.050734      -164.6489
  77   2.0000      -6.048103      -164.5773
  78   2.0000      -6.045650      -164.5105
  79   2.0000      -6.027748      -164.0234
  80   2.0000      -6.023077      -163.8962
  81   2.0000      -6.015579      -163.6922
  82   2.0000      -6.014975      -163.6758
  83   2.0000      -6.011235      -163.5740
  84   2.0000      -6.002436      -163.3346
  85   2.0000      -1.243669       -33.8420
  86   2.0000      -1.173824       -31.9414
  87   2.0000      -1.168937       -31.8084
  88   2.0000      -1.142135       -31.0791
  89   2.0000      -1.128104       -30.6973
  90   2.0000      -1.060992       -28.8711
  91   2.0000      -1.052532       -28.6408
  92   2.0000      -1.044095       -28.4113
  93   2.0000      -1.039241       -28.2792
  94   2.0000      -1.034604       -28.1530
  95   2.0000      -1.031713       -28.0743
  96   2.0000      -1.025538       -27.9063
  97   2.0000      -1.019309       -27.7368
  98   2.0000      -1.015569       -27.6351
  99   2.0000      -1.008463       -27.4417
 100   2.0000      -0.995280       -27.0829
 101   2.0000      -0.990301       -26.9475
 102   2.0000      -0.984769       -26.7969
 103   2.0000      -0.979152       -26.6441
 104   2.0000      -0.961302       -26.1584
 105   2.0000      -0.944602       -25.7039
 106   2.0000      -0.939158       -25.5558
 107   2.0000      -0.932661       -25.3790
 108   2.0000      -0.929289       -25.2872
 109   2.0000      -0.926209       -25.2034
 110   2.0000      -0.910363       -24.7722
 111   2.0000      -0.903896       -24.5963
 112   2.0000      -0.900762       -24.5110
 113   2.0000      -0.893237       -24.3062
 114   2.0000      -0.891026       -24.2461
 115   2.0000      -0.890289       -24.2260
 116   2.0000      -0.873334       -23.7646
 117   2.0000      -0.870429       -23.6856
 118   2.0000      -0.855639       -23.2831
 119   2.0000      -0.849189       -23.1076
 120   2.0000      -0.838784       -22.8245
 121   2.0000      -0.831266       -22.6199
 122   2.0000      -0.827620       -22.5207
 123   2.0000      -0.814160       -22.1544
 124   2.0000      -0.807149       -21.9636
 125   2.0000      -0.800387       -21.7796
 126   2.0000      -0.796887       -21.6844
 127   2.0000      -0.781347       -21.2615
 128   2.0000      -0.777015       -21.1437
 129   2.0000      -0.772061       -21.0088
 130   2.0000      -0.756629       -20.5889
 131   2.0000      -0.752909       -20.4877
 132   2.0000      -0.749433       -20.3931
 133   2.0000      -0.744849       -20.2684
 134   2.0000      -0.739722       -20.1289
 135   2.0000      -0.731889       -19.9157
 136   2.0000      -0.730036       -19.8653
 137   2.0000      -0.725303       -19.7365
 138   2.0000      -0.721629       -19.6365
 139   2.0000      -0.716819       -19.5056
 140   2.0000      -0.707605       -19.2549
 141   2.0000      -0.693575       -18.8731
 142   2.0000      -0.686182       -18.6720
 143   2.0000      -0.681159       -18.5353
 144   2.0000      -0.672946       -18.3118
 145   2.0000      -0.668087       -18.1796
 146   2.0000      -0.664702       -18.0875
 147   2.0000      -0.655879       -17.8474
 148   2.0000      -0.654523       -17.8105
 149   2.0000      -0.650449       -17.6996
 150   2.0000      -0.648197       -17.6383
 151   2.0000      -0.643557       -17.5121
 152   2.0000      -0.631961       -17.1965
 153   2.0000      -0.623915       -16.9776
 154   2.0000      -0.621295       -16.9063
 155   2.0000      -0.615794       -16.7566
 156   2.0000      -0.607567       -16.5327
 157   2.0000      -0.606648       -16.5077
 158   2.0000      -0.600577       -16.3425
 159   2.0000      -0.598216       -16.2783
 160   2.0000      -0.594966       -16.1898
 161   2.0000      -0.588234       -16.0067
 162   2.0000      -0.586603       -15.9623
 163   2.0000      -0.582011       -15.8373
 164   2.0000      -0.580355       -15.7923
 165   2.0000      -0.579207       -15.7610
 166   2.0000      -0.574908       -15.6440
 167   2.0000      -0.573478       -15.6051
 168   2.0000      -0.572393       -15.5756
 169   2.0000      -0.571571       -15.5532
 170   2.0000      -0.566606       -15.4181
 171   2.0000      -0.565156       -15.3787
 172   2.0000      -0.560837       -15.2611
 173   2.0000      -0.559992       -15.2381
 174   2.0000      -0.556097       -15.1322
 175   2.0000      -0.554645       -15.0927
 176   2.0000      -0.553751       -15.0683
 177   2.0000      -0.551294       -15.0015
 178   2.0000      -0.546823       -14.8798
 179   2.0000      -0.545076       -14.8323
 180   2.0000      -0.542748       -14.7689
 181   2.0000      -0.538242       -14.6463
 182   2.0000      -0.535823       -14.5805
 183   2.0000      -0.533948       -14.5295
 184   2.0000      -0.531253       -14.4561
 185   2.0000      -0.528769       -14.3885
 186   2.0000      -0.527425       -14.3520
 187   2.0000      -0.525380       -14.2963
 188   2.0000      -0.519230       -14.1290
 189   2.0000      -0.512744       -13.9525
 190   2.0000      -0.511240       -13.9116
 191   2.0000      -0.504327       -13.7234
 192   2.0000      -0.502678       -13.6786
 193   2.0000      -0.500839       -13.6285
 194   2.0000      -0.498291       -13.5592
 195   2.0000      -0.496245       -13.5035
 196   2.0000      -0.495482       -13.4827
 197   2.0000      -0.492253       -13.3949
 198   2.0000      -0.491622       -13.3777
 199   2.0000      -0.489906       -13.3310
 200   2.0000      -0.489356       -13.3161
 201   2.0000      -0.487441       -13.2640
 202   2.0000      -0.487225       -13.2581
 203   2.0000      -0.483399       -13.1540
 204   2.0000      -0.481665       -13.1068
 205   2.0000      -0.480735       -13.0815
 206   2.0000      -0.480349       -13.0710
 207   2.0000      -0.478903       -13.0316
 208   2.0000      -0.478247       -13.0138
 209   2.0000      -0.475821       -12.9477
 210   2.0000      -0.473030       -12.8718
 211   2.0000      -0.471247       -12.8233
 212   2.0000      -0.470072       -12.7913
 213   2.0000      -0.466899       -12.7050
 214   2.0000      -0.465755       -12.6738
 215   2.0000      -0.463642       -12.6163
 216   2.0000      -0.461112       -12.5475
 217   2.0000      -0.458630       -12.4800
 218   2.0000      -0.457199       -12.4410
 219   2.0000      -0.455334       -12.3903
 220   2.0000      -0.453806       -12.3487
 221   2.0000      -0.452408       -12.3106
 222   2.0000      -0.449105       -12.2208
 223   2.0000      -0.445737       -12.1291
 224   2.0000      -0.443783       -12.0760
 225   2.0000      -0.437918       -11.9164
 226   2.0000      -0.437027       -11.8921
 227   2.0000      -0.428651       -11.6642
 228   2.0000      -0.426855       -11.6153
 229   2.0000      -0.423285       -11.5182
 230   2.0000      -0.418385       -11.3848
 231   2.0000      -0.411532       -11.1984
 232   2.0000      -0.407343       -11.0844
 233   2.0000      -0.395020       -10.7490
 234   2.0000      -0.394117       -10.7245
 235   2.0000      -0.389461       -10.5978
 236   2.0000      -0.379148       -10.3171
 237   2.0000      -0.375220       -10.2103
 238   2.0000      -0.372217       -10.1285
 239   2.0000      -0.367906       -10.0112
 240   2.0000      -0.361773        -9.8443
 241   2.0000      -0.359324        -9.7777
 242   2.0000      -0.355212        -9.6658
 243   2.0000      -0.345858        -9.4113
 244   2.0000      -0.338547        -9.2123
 245   2.0000      -0.333988        -9.0883
 246   2.0000      -0.326982        -8.8976
 247   2.0000      -0.312451        -8.5022
 248   2.0000      -0.300150        -8.1675
 249   2.0000      -0.291864        -7.9420
 250   2.0000      -0.270227        -7.3532
 251   0.0000      -0.075055        -2.0424
 252   0.0000      -0.064058        -1.7431
 253   0.0000      -0.040644        -1.1060
 254   0.0000      -0.033507        -0.9118
 255   0.0000       0.005530         0.1505

MULLIKEN ATOMIC CHARGES
-----------------------
   0 C :    0.230886
   1 O :   -0.207671
   2 C :   -0.061092
   3 C :   -0.029137
   4 C :    0.015416
   5 C :    0.016940
   6 C :   -0.037655
   7 C :    0.008055
   8 C :    0.295249
   9 C :   -0.388271
  10 C :   -0.120007
  11 N :    0.091883
  12 C :   -0.127682
  13 N :    0.101717
  14 C :   -0.152695
  15 C :    0.001763
  16 C :   -0.106389
  17 S :    0.185974
  18 C :   -0.019762
  19 C :   -0.091195
  20 C :   -0.083012
  21 S :    0.189526
  22 C :   -0.074369
  23 C :    0.050355
  24 N :   -0.246608
  25 C :    0.054180
  26 C :   -0.046019
  27 C :    0.082787
  28 C :   -0.110126
  29 C :    0.004644
  30 N :   -0.064537
  31 N :   -0.116542
  32 C :    0.120782
  33 C :   -0.090526
  34 N :   -0.070526
  35 C :   -0.033084
  36 C :    0.073695
  37 C :    0.069147
  38 N :   -0.257610
  39 C :    0.061722
  40 C :   -0.016111
  41 C :   -0.086032
  42 C :   -0.274286
  43 S :    0.057650
  44 C :    0.048846
  45 C :    0.010328
  46 S :    0.129295
  47 C :   -0.094921
  48 C :   -0.067560
  49 C :   -0.026037
  50 C :   -0.088061
  51 C :    0.268795
  52 C :   -0.360221
  53 C :   -0.128513
  54 N :    0.110485
  55 C :   -0.129388
  56 N :    0.106392
  57 C :    0.008783
  58 C :   -0.028659
  59 C :    0.014867
  60 C :    0.013895
  61 C :   -0.027978
  62 C :   -0.054963
  63 C :    0.219266
  64 O :   -0.160089
  65 C :    0.008093
  66 C :   -0.014857
  67 C :    0.024963
  68 C :   -0.022675
  69 H :    0.021953
  70 H :    0.028071
  71 H :    0.028861
  72 H :    0.030084
  73 H :   -0.008415
  74 H :    0.053036
  75 H :    0.059685
  76 H :    0.051612
  77 H :    0.041552
  78 H :    0.051938
  79 H :    0.057084
  80 H :    0.057875
  81 H :    0.049642
  82 H :    0.039394
  83 H :    0.069492
  84 H :    0.029390
  85 H :    0.046352
  86 H :    0.035371
  87 H :    0.043066
  88 H :    0.047066
  89 H :    0.034230
  90 H :    0.030925
  91 H :    0.031555
  92 H :    0.030730
  93 H :    0.020911
  94 H :    0.061384
  95 H :    0.038070
  96 H :    0.032252
  97 H :    0.054363
  98 H :    0.035203
  99 H :    0.051063
 100 H :    0.042959
 101 H :    0.041097
 102 H :    0.049372
 103 H :    0.051261
Sum of atomic charges:   -0.0000000

LOEWDIN ATOMIC CHARGES
----------------------
   0 C :    0.092547
   1 O :   -0.173595
   2 C :   -0.047763
   3 C :    0.010236
   4 C :   -0.006173
   5 C :   -0.002956
   6 C :    0.001292
   7 C :   -0.018082
   8 C :    0.084010
   9 C :   -0.156566
  10 C :   -0.011760
  11 N :   -0.064594
  12 C :   -0.013525
  13 N :   -0.061367
  14 C :   -0.133322
  15 C :    0.065851
  16 C :   -0.197772
  17 S :    0.478890
  18 C :   -0.190825
  19 C :   -0.199005
  20 C :   -0.009342
  21 S :    0.406008
  22 C :   -0.173746
  23 C :   -0.040714
  24 N :    0.034892
  25 C :    0.038623
  26 C :   -0.065114
  27 C :    0.012322
  28 C :   -0.069146
  29 C :   -0.058987
  30 N :   -0.094274
  31 N :    0.144515
  32 C :    0.035679
  33 C :   -0.064555
  34 N :   -0.088535
  35 C :   -0.059318
  36 C :   -0.085064
  37 C :    0.023207
  38 N :   -0.052758
  39 C :    0.037815
  40 C :   -0.061871
  41 C :   -0.073494
  42 C :   -0.220296
  43 S :    0.153715
  44 C :   -0.005084
  45 C :   -0.057227
  46 S :    0.364133
  47 C :   -0.153017
  48 C :   -0.000204
  49 C :    0.061385
  50 C :   -0.095875
  51 C :    0.081407
  52 C :   -0.142437
  53 C :   -0.013374
  54 N :   -0.051530
  55 C :   -0.011055
  56 N :   -0.051759
  57 C :   -0.019496
  58 C :    0.003042
  59 C :   -0.001127
  60 C :   -0.002972
  61 C :    0.011564
  62 C :   -0.044544
  63 C :    0.085997
  64 O :   -0.132128
  65 C :   -0.034224
  66 C :   -0.044933
  67 C :   -0.031291
  68 C :   -0.045928
  69 H :    0.041384
  70 H :    0.036814
  71 H :    0.038763
  72 H :    0.041878
  73 H :    0.046950
  74 H :    0.030692
  75 H :    0.034514
  76 H :    0.020261
  77 H :    0.025724
  78 H :    0.037256
  79 H :    0.038158
  80 H :    0.037156
  81 H :    0.033286
  82 H :    0.028636
  83 H :    0.032592
  84 H :    0.023685
  85 H :    0.026132
  86 H :    0.025895
  87 H :    0.033875
  88 H :    0.031674
  89 H :    0.045762
  90 H :    0.042197
  91 H :    0.039848
  92 H :    0.037943
  93 H :    0.041343
  94 H :    0.039894
  95 H :    0.033433
  96 H :    0.025673
  97 H :    0.034702
  98 H :    0.027862
  99 H :    0.043953
 100 H :    0.033669
 101 H :    0.031050
 102 H :    0.033517
 103 H :    0.029420

  Mayer bond orders larger than 0.100000
B(  0-C ,  1-O ) :   2.1157 B(  0-C ,  2-C ) :   0.9660 B(  0-C , 14-C ) :   0.9776
B(  2-C ,  3-C ) :   1.4091 B(  2-C ,  7-C ) :   1.3355 B(  3-C ,  4-C ) :   1.3527
B(  3-C , 69-H ) :   1.0049 B(  4-C ,  5-C ) :   1.3937 B(  4-C , 70-H ) :   0.9904
B(  5-C ,  6-C ) :   1.3820 B(  5-C , 71-H ) :   0.9853 B(  6-C ,  7-C ) :   1.3973
B(  6-C , 72-H ) :   0.9829 B(  7-C ,  8-C ) :   0.9975 B(  8-C ,  9-C ) :   1.6227
B(  8-C , 14-C ) :   1.1054 B(  9-C , 10-C ) :   1.1400 B(  9-C , 12-C ) :   1.1329
B( 10-C , 11-N ) :   2.9532 B( 12-C , 13-N ) :   2.9698 B( 14-C , 15-C ) :   1.5203
B( 15-C , 16-C ) :   1.3195 B( 15-C , 73-H ) :   0.9271 B( 16-C , 17-S ) :   1.0422
B( 16-C , 20-C ) :   1.3836 B( 17-S , 18-C ) :   1.0361 B( 18-C , 19-C ) :   1.4109
B( 18-C , 23-C ) :   1.3116 B( 19-C , 20-C ) :   1.4509 B( 19-C , 21-S ) :   1.0231
B( 20-C , 65-C ) :   1.0547 B( 21-S , 22-C ) :   1.0139 B( 22-C , 23-C ) :   1.4203
B( 22-C , 28-C ) :   1.3712 B( 23-C , 24-N ) :   1.1459 B( 24-N , 25-C ) :   0.9197
B( 24-N , 27-C ) :   1.1643 B( 25-C , 26-C ) :   1.0894 B( 25-C , 74-H ) :   0.9475
B( 25-C , 75-H ) :   0.9522 B( 26-C , 76-H ) :   0.9584 B( 26-C , 77-H ) :   0.9651
B( 26-C , 78-H ) :   0.9667 B( 27-C , 28-C ) :   1.3755 B( 27-C , 37-C ) :   1.2065
B( 28-C , 29-C ) :   1.1373 B( 29-C , 30-N ) :   1.5383 B( 29-C , 35-C ) :   1.2306
B( 30-N , 31-N ) :   1.2219 B( 30-N , 34-N ) :   0.1530 B( 31-N , 32-C ) :   0.9153
B( 31-N , 34-N ) :   1.2167 B( 32-C , 33-C ) :   1.0947 B( 32-C , 79-H ) :   0.9499
B( 32-C , 80-H ) :   0.9529 B( 33-C , 81-H ) :   0.9670 B( 33-C , 82-H ) :   0.9708
B( 33-C , 83-H ) :   0.9627 B( 34-N , 35-C ) :   1.5008 B( 35-C , 36-C ) :   1.1941
B( 36-C , 37-C ) :   1.5272 B( 36-C , 42-C ) :   0.9596 B( 37-C , 38-N ) :   1.0628
B( 38-N , 39-C ) :   0.9343 B( 38-N , 41-C ) :   1.0238 B( 39-C , 40-C ) :   1.0947
B( 39-C , 84-H ) :   0.9500 B( 39-C , 85-H ) :   0.9421 B( 40-C , 86-H ) :   0.9662
B( 40-C , 87-H ) :   0.9668 B( 40-C , 88-H ) :   0.9623 B( 41-C , 42-C ) :   0.8724
B( 41-C , 43-S ) :   0.9555 B( 41-C , 45-C ) :   1.0425 B( 42-C , 43-S ) :   0.9479
B( 42-C , 46-S ) :   0.9807 B( 44-C , 45-C ) :   2.5853 B( 44-C , 48-C ) :   1.0951
B( 46-S , 47-C ) :   1.0286 B( 47-C , 48-C ) :   1.6090 B( 47-C , 49-C ) :   1.1793
B( 48-C , 67-C ) :   1.0437 B( 49-C , 50-C ) :   1.6600 B( 49-C , 89-H ) :   0.9290
B( 50-C , 51-C ) :   1.0817 B( 50-C , 63-C ) :   0.9411 B( 51-C , 52-C ) :   1.6520
B( 51-C , 57-C ) :   1.0094 B( 52-C , 53-C ) :   1.1272 B( 52-C , 55-C ) :   1.1326
B( 53-C , 54-N ) :   2.9735 B( 55-C , 56-N ) :   2.9657 B( 57-C , 58-C ) :   1.3863
B( 57-C , 62-C ) :   1.3288 B( 58-C , 59-C ) :   1.3910 B( 58-C , 90-H ) :   0.9833
B( 59-C , 60-C ) :   1.3824 B( 59-C , 91-H ) :   0.9861 B( 60-C , 61-C ) :   1.3626
B( 60-C , 92-H ) :   0.9916 B( 61-C , 62-C ) :   1.4067 B( 61-C , 93-H ) :   1.0033
B( 62-C , 63-C ) :   0.9480 B( 63-C , 64-O ) :   2.1687 B( 65-C , 66-C ) :   1.0896
B( 65-C , 94-H ) :   0.9131 B( 65-C , 95-H ) :   0.9320 B( 66-C , 96-H ) :   0.9734
B( 66-C , 97-H ) :   0.9712 B( 66-C , 98-H ) :   0.9699 B( 67-C , 68-C ) :   1.0832
B( 67-C , 99-H ) :   0.9304 B( 67-C ,100-H ) :   0.9240 B( 68-C ,101-H ) :   0.9669
B( 68-C ,102-H ) :   0.9703 B( 68-C ,103-H ) :   0.9627

-----------------------------------------------------------------------------
         ABSORPTION SPECTRUM VIA TRANSITION ELECTRIC DIPOLE MOMENTS
-----------------------------------------------------------------------------
State   Energy  Wavelength   fosc         T2         TX        TY        TZ
        (cm-1)    (nm)                  (au**2)     (au)      (au)      (au)
-----------------------------------------------------------------------------
   0   20340.5    491.6   0.263015774   4.25693   0.52528   1.92653   0.51913
   1   22784.0    438.9   2.580090550  37.28045   1.87267  -5.63482  -1.42210
   2   25195.6    396.9   0.013981556   0.18269   0.06009  -0.34262  -0.24837
   3   26967.7    370.8   0.314823495   3.84325  -0.39067  -1.90215   0.26915
   4   27164.3    368.1   0.064591080   0.78280   0.07514   0.85948   0.19609
   5   28822.1    347.0   0.133932600   1.52981  -0.84085   0.89192   0.16506
   6   29078.4    343.9   0.125975191   1.42623  -1.06715  -0.38786  -0.37011
   7   30714.2    325.6   0.005728685   0.06140  -0.16369   0.18238  -0.03672
   8   30980.1    322.8   0.015726801   0.16712   0.01024  -0.38846   0.12693
   9   31440.6    318.1   0.011401947   0.11939   0.08441  -0.32449   0.08349
  10   32412.4    308.5   0.057179400   0.58077  -0.02111  -0.57206   0.50306
  11   32791.7    305.0   0.110553938   1.10991  -0.27001  -0.91093   0.45520
  12   34322.3    291.4   0.026129908   0.25063  -0.17799   0.16232  -0.43887
  13   35104.6    284.9   0.077912819   0.73067  -0.58317  -0.56004  -0.27738
  14   35275.7    283.5   0.001856393   0.01732  -0.00587  -0.05917  -0.11743
  15   35547.4    281.3   0.019652025   0.18200  -0.36459   0.20909  -0.07318
  16   35669.3    280.4   0.053224904   0.49124   0.52577  -0.22160   0.40706
  17   35825.0    279.1   0.017073621   0.15690   0.31468   0.18352  -0.15555
  18   35981.8    277.9   0.017937026   0.16411  -0.15624   0.29814  -0.22542
  19   36428.9    274.5   0.040924903   0.36984  -0.01140   0.60198   0.08561
  20   36533.4    273.7   0.068419523   0.61655  -0.33880   0.36303  -0.60825
  21   37096.0    269.6   0.042212002   0.37461  -0.51991  -0.01165  -0.32275
  22   37316.4    268.0   0.059796924   0.52754  -0.31932  -0.56903  -0.31903
  23   37845.5    264.2   0.055482778   0.48264  -0.49625  -0.28240  -0.39576
  24   37920.5    263.7   0.288370791   2.50353  -0.88675  -0.29087  -1.27773
  25   38361.2    260.7   0.663746438   5.69620  -2.03293  -0.64709  -1.06990
  26   38680.8    258.5   0.298632997   2.54167  -1.40794  -0.26310  -0.70011
  27   39848.8    250.9   0.082581318   0.68225   0.69481  -0.43611   0.09641

Dispersion correction           -0.067864465
FINAL SINGLE POINT ENERGY     -4311.314381601858

DIPOLE MOMENT
-------------
                                X             Y             Z
Electronic contribution:     15.77663       4.15934     -10.45064
Nuclear contribution   :    -17.64832      -4.08990      11.90808
                        -----------------------------------------
Total Dipole Moment    :     -1.87169       0.06944       1.45744
                        -----------------------------------------
Magnitude (a.u.)       :      2.37322
Magnitude (Debye)      :      6.03224

Rotational constants in cm-1:     0.002489     0.000350     0.000315
Rotational constants in MHz :    74.614031    10.485212     9.447479

                             ****ORCA TERMINATED NORMALLY****
TOTAL RUN TIME: 0 days 0 hours 10 minutes 7 seconds 199 msec
