                         Program Version 4.2.0 -  RELEASE  -
|  1> # ORCA input file
|  2> # SCF done       -146.384239478693          0.000357402356
|  3> ! wb97x-d3 def2-SVP def2/J RIJCOSX Grid4 TightSCF
|  4> %maxcore 5000
|  5> %tddft
|  6>     Mode sTDA
|  7>     Ethresh 5.0
|  8>     maxcore 5000
|  9> end
| 10>
| 11> %pal
| 12>   nprocs 6
| 13>   end
| 14> * xyz -1 2
| 15>    C        0.40170         1.28536         0.70894
| 16>    C        1.55429         0.55470         0.79291
| 17>    C        1.57312        -0.83053         0.56843
| 18>    C        0.42067        -1.54643         0.28472
| 19>    C       -0.79813        -0.80453         0.25125
| 20>    C       -0.79156         0.60893         0.40701
| 21>    N       -1.96953        -1.45034         0.16737
| 22>    C       -3.09241        -0.76781         0.11943
| 23>    C       -3.04163         0.66340        -0.03233
| 24>    N       -1.92018         1.30441         0.18770
| 25>    F        2.71824         1.16846         1.07074
| 26>    F        2.77204        -1.44303         0.62042
| 27>    C        1.38391        -3.90036         0.31662
| 28>    C        1.04886        -5.18901        -0.10812
| 29>    C       -0.16257        -5.25288        -0.75235
| 30>    S       -0.92912        -3.69454        -0.78007
| 31>    C        0.41803        -2.96272         0.03095
| 32>    C       -4.34774        -1.48952         0.29940
| 33>    C       -4.46142        -2.80797        -0.13730
| 34>    C       -5.62999        -3.53728         0.01713
| 35>    C       -6.73893        -2.91951         0.63268
| 36>    C       -6.59509        -1.61602         1.11012
| 37>    C       -5.42811        -0.90470         0.95719
| 38>    C       -4.18727         1.46745        -0.45410
| 39>    C       -4.32692         2.76864         0.01426
| 40>    C       -5.40634         3.53447        -0.37831
| 41>    C       -6.36786         3.04654        -1.25784
| 42>    C       -6.20970         1.74254        -1.77488
| 43>    C       -5.12569         0.98124        -1.35853
| 44>    O       -7.46445         3.76689        -1.64166
| 45>    C       -7.61843         5.09605        -1.18544
| 46>    C       -8.89460         5.64416        -1.80565
| 47>    O       -7.02826         1.10205        -2.65041
| 48>    C       -8.04514         1.78332        -3.36569
| 49>    C       -8.60226         0.80279        -4.38700
| 50>    O       -7.96700        -3.44974         0.84765
| 51>    C       -8.34654        -4.72059         0.34609
| 52>    C       -9.83212        -4.88460         0.63133
| 53>    O       -5.77375        -4.83105        -0.41836
| 54>    C       -4.62352        -5.61009        -0.68494
| 55>    C       -3.82183        -5.93335         0.57024
| 56>    C       -0.80385        -6.41210        -1.33055
| 57>    C       -0.54239        -7.69730        -0.84634
| 58>    C       -1.17751        -8.79319        -1.38393
| 59>    C       -2.09791        -8.65913        -2.42798
| 60>    C       -2.34376        -7.37430        -2.92383
| 61>    C       -1.70980        -6.27773        -2.38558
| 62>    C       -2.77097        -9.81740        -2.97148
| 63>    S       -2.39260       -11.41932        -2.39626
| 64>    C       -3.53523       -12.12346        -3.46378
| 65>    C       -4.17221       -11.19058        -4.21756
| 66>    C       -3.73947        -9.88023        -3.93931
| 67>    H        0.40175         2.35332         0.84554
| 68>    H        2.30223        -3.67336         0.82494
| 69>    H        1.69675        -6.03723         0.02241
| 70>    H       -3.60281        -3.24500        -0.61839
| 71>    H       -7.44457        -1.18115         1.61232
| 72>    H       -5.35034         0.09123         1.36292
| 73>    H       -3.59473         3.16624         0.69797
| 74>    H       -5.50129         4.53256         0.01791
| 75>    H       -5.03172        -0.00785        -1.77754
| 76>    H       -6.75635         5.70419        -1.49207
| 77>    H       -7.69315         5.11445        -0.08940
| 78>    H       -8.82192         5.62141        -2.88958
| 79>    H       -9.05194         6.66826        -1.48005
| 80>    H       -9.74480         5.03919        -1.50288
| 81>    H       -7.63028         2.66299        -3.87056
| 82>    H       -8.83716         2.11140        -2.68384
| 83>    H       -7.81728         0.48766        -5.06901
| 84>    H       -9.40056         1.27368        -4.95346
| 85>    H       -8.99230        -0.07559        -3.88048
| 86>    H       -7.77494        -5.51200         0.84342
| 87>    H       -8.15598        -4.77582        -0.73065
| 88>    H      -10.01494        -4.82203         1.70059
| 89>    H      -10.17289        -5.84929         0.26661
| 90>    H      -10.39534        -4.09689         0.13828
| 91>    H       -3.98808        -5.12855        -1.43557
| 92>    H       -5.02611        -6.53014        -1.11827
| 93>    H       -3.39898        -5.02945         1.00151
| 94>    H       -3.01513        -6.61534         0.31777
| 95>    H       -4.46495        -6.40449         1.30996
| 96>    H        0.14737        -7.82821        -0.02673
| 97>    H       -0.97000        -9.77732        -0.98902
| 98>    H       -3.03414        -7.23597        -3.74079
| 99>    H       -1.89822        -5.29345        -2.78952
|100>    H       -3.66454       -13.18749        -3.46629
|101>    H       -4.92531       -11.42764        -4.94765
|102>    H       -4.13903        -9.01778        -4.44056
|103> *
|104>
|105>                          ****END OF INPUT****

CARTESIAN COORDINATES (ANGSTROEM)
---------------------------------
  C      0.401700    1.285360    0.708940
  C      1.554290    0.554700    0.792910
  C      1.573120   -0.830530    0.568430
  C      0.420670   -1.546430    0.284720
  C     -0.798130   -0.804530    0.251250
  C     -0.791560    0.608930    0.407010
  N     -1.969530   -1.450340    0.167370
  C     -3.092410   -0.767810    0.119430
  C     -3.041630    0.663400   -0.032330
  N     -1.920180    1.304410    0.187700
  F      2.718240    1.168460    1.070740
  F      2.772040   -1.443030    0.620420
  C      1.383910   -3.900360    0.316620
  C      1.048860   -5.189010   -0.108120
  C     -0.162570   -5.252880   -0.752350
  S     -0.929120   -3.694540   -0.780070
  C      0.418030   -2.962720    0.030950
  C     -4.347740   -1.489520    0.299400
  C     -4.461420   -2.807970   -0.137300
  C     -5.629990   -3.537280    0.017130
  C     -6.738930   -2.919510    0.632680
  C     -6.595090   -1.616020    1.110120
  C     -5.428110   -0.904700    0.957190
  C     -4.187270    1.467450   -0.454100
  C     -4.326920    2.768640    0.014260
  C     -5.406340    3.534470   -0.378310
  C     -6.367860    3.046540   -1.257840
  C     -6.209700    1.742540   -1.774880
  C     -5.125690    0.981240   -1.358530
  O     -7.464450    3.766890   -1.641660
  C     -7.618430    5.096050   -1.185440
  C     -8.894600    5.644160   -1.805650
  O     -7.028260    1.102050   -2.650410
  C     -8.045140    1.783320   -3.365690
  C     -8.602260    0.802790   -4.387000
  O     -7.967000   -3.449740    0.847650
  C     -8.346540   -4.720590    0.346090
  C     -9.832120   -4.884600    0.631330
  O     -5.773750   -4.831050   -0.418360
  C     -4.623520   -5.610090   -0.684940
  C     -3.821830   -5.933350    0.570240
  C     -0.803850   -6.412100   -1.330550
  C     -0.542390   -7.697300   -0.846340
  C     -1.177510   -8.793190   -1.383930
  C     -2.097910   -8.659130   -2.427980
  C     -2.343760   -7.374300   -2.923830
  C     -1.709800   -6.277730   -2.385580
  C     -2.770970   -9.817400   -2.971480
  S     -2.392600  -11.419320   -2.396260
  C     -3.535230  -12.123460   -3.463780
  C     -4.172210  -11.190580   -4.217560
  C     -3.739470   -9.880230   -3.939310
  H      0.401750    2.353320    0.845540
  H      2.302230   -3.673360    0.824940
  H      1.696750   -6.037230    0.022410
  H     -3.602810   -3.245000   -0.618390
  H     -7.444570   -1.181150    1.612320
  H     -5.350340    0.091230    1.362920
  H     -3.594730    3.166240    0.697970
  H     -5.501290    4.532560    0.017910
  H     -5.031720   -0.007850   -1.777540
  H     -6.756350    5.704190   -1.492070
  H     -7.693150    5.114450   -0.089400
  H     -8.821920    5.621410   -2.889580
  H     -9.051940    6.668260   -1.480050
  H     -9.744800    5.039190   -1.502880
  H     -7.630280    2.662990   -3.870560
  H     -8.837160    2.111400   -2.683840
  H     -7.817280    0.487660   -5.069010
  H     -9.400560    1.273680   -4.953460
  H     -8.992300   -0.075590   -3.880480
  H     -7.774940   -5.512000    0.843420
  H     -8.155980   -4.775820   -0.730650
  H    -10.014940   -4.822030    1.700590
  H    -10.172890   -5.849290    0.266610
  H    -10.395340   -4.096890    0.138280
  H     -3.988080   -5.128550   -1.435570
  H     -5.026110   -6.530140   -1.118270
  H     -3.398980   -5.029450    1.001510
  H     -3.015130   -6.615340    0.317770
  H     -4.464950   -6.404490    1.309960
  H      0.147370   -7.828210   -0.026730
  H     -0.970000   -9.777320   -0.989020
  H     -3.034140   -7.235970   -3.740790
  H     -1.898220   -5.293450   -2.789520
  H     -3.664540  -13.187490   -3.466290
  H     -4.925310  -11.427640   -4.947650
  H     -4.139030   -9.017780   -4.440560

 Total Charge           Charge          ....   -1
 Multiplicity           Mult            ....    2
 Number of Electrons    NEL             ....  385
 Basis Dimension        Dim             ....  916

ORBITAL ENERGIES
----------------
                 SPIN UP ORBITALS
  NO   OCC          E(Eh)            E(eV)
   0   1.0000     -88.905195     -2419.2334
   1   1.0000     -88.853814     -2417.8352
   2   1.0000     -24.690714      -671.8685
   3   1.0000     -24.687692      -671.7862
   4   1.0000     -19.196705      -522.3689
   5   1.0000     -19.179955      -521.9131
   6   1.0000     -19.174509      -521.7649
   7   1.0000     -19.172833      -521.7193
   8   1.0000     -14.297692      -389.0600
   9   1.0000     -14.295728      -389.0065
  10   1.0000     -10.287854      -279.9467
  11   1.0000     -10.268636      -279.4238
  12   1.0000     -10.264903      -279.3222
  13   1.0000     -10.262337      -279.2524
  14   1.0000     -10.261367      -279.2260
  15   1.0000     -10.258769      -279.1553
  16   1.0000     -10.254719      -279.0451
  17   1.0000     -10.254465      -279.0382
  18   1.0000     -10.253849      -279.0214
  19   1.0000     -10.253215      -279.0042
  20   1.0000     -10.252644      -278.9886
  21   1.0000     -10.252539      -278.9858
  22   1.0000     -10.235495      -278.5220
  23   1.0000     -10.233701      -278.4732
  24   1.0000     -10.232675      -278.4452
  25   1.0000     -10.229018      -278.3457
  26   1.0000     -10.226021      -278.2642
  27   1.0000     -10.224202      -278.2147
  28   1.0000     -10.223831      -278.2046
  29   1.0000     -10.216525      -278.0058
  30   1.0000     -10.214432      -277.9488
  31   1.0000     -10.213923      -277.9350
  32   1.0000     -10.213269      -277.9172
  33   1.0000     -10.211383      -277.8659
  34   1.0000     -10.211269      -277.8628
  35   1.0000     -10.208691      -277.7926
  36   1.0000     -10.207081      -277.7488
  37   1.0000     -10.205234      -277.6985
  38   1.0000     -10.204238      -277.6714
  39   1.0000     -10.202861      -277.6340
  40   1.0000     -10.195126      -277.4235
  41   1.0000     -10.191581      -277.3270
  42   1.0000     -10.191519      -277.3253
  43   1.0000     -10.189255      -277.2637
  44   1.0000     -10.188724      -277.2493
  45   1.0000     -10.187362      -277.2122
  46   1.0000     -10.187111      -277.2054
  47   1.0000     -10.184462      -277.1333
  48   1.0000     -10.183854      -277.1168
  49   1.0000     -10.182072      -277.0683
  50   1.0000     -10.175769      -276.8968
  51   1.0000     -10.164598      -276.5928
  52   1.0000      -8.019551      -218.2231
  53   1.0000      -7.965634      -216.7559
  54   1.0000      -5.978985      -162.6964
  55   1.0000      -5.974716      -162.5803
  56   1.0000      -5.972189      -162.5115
  57   1.0000      -5.925320      -161.2362
  58   1.0000      -5.920834      -161.1141
  59   1.0000      -5.918371      -161.0471
  60   1.0000      -1.218008       -33.1437
  61   1.0000      -1.201972       -32.7073
  62   1.0000      -1.106087       -30.0981
  63   1.0000      -1.088174       -29.6107
  64   1.0000      -1.080882       -29.4123
  65   1.0000      -1.068611       -29.0784
  66   1.0000      -0.972150       -26.4535
  67   1.0000      -0.946464       -25.7546
  68   1.0000      -0.912185       -24.8218
  69   1.0000      -0.901144       -24.5214
  70   1.0000      -0.888845       -24.1867
  71   1.0000      -0.884049       -24.0562
  72   1.0000      -0.870619       -23.6908
  73   1.0000      -0.853462       -23.2239
  74   1.0000      -0.828019       -22.5315
  75   1.0000      -0.825206       -22.4550
  76   1.0000      -0.811989       -22.0953
  77   1.0000      -0.808873       -22.0105
  78   1.0000      -0.797273       -21.6949
  79   1.0000      -0.792437       -21.5633
  80   1.0000      -0.783908       -21.3312
  81   1.0000      -0.782615       -21.2960
  82   1.0000      -0.776781       -21.1373
  83   1.0000      -0.761224       -20.7140
  84   1.0000      -0.755482       -20.5577
  85   1.0000      -0.750978       -20.4352
  86   1.0000      -0.743953       -20.2440
  87   1.0000      -0.738904       -20.1066
  88   1.0000      -0.725396       -19.7390
  89   1.0000      -0.708780       -19.2869
  90   1.0000      -0.694715       -18.9042
  91   1.0000      -0.674459       -18.3530
  92   1.0000      -0.671710       -18.2782
  93   1.0000      -0.659341       -17.9416
  94   1.0000      -0.654145       -17.8002
  95   1.0000      -0.652029       -17.7426
  96   1.0000      -0.649322       -17.6689
  97   1.0000      -0.633710       -17.2441
  98   1.0000      -0.624171       -16.9846
  99   1.0000      -0.615714       -16.7544
 100   1.0000      -0.610313       -16.6075
 101   1.0000      -0.600425       -16.3384
 102   1.0000      -0.597087       -16.2476
 103   1.0000      -0.592697       -16.1281
 104   1.0000      -0.588697       -16.0193
 105   1.0000      -0.575714       -15.6660
 106   1.0000      -0.573509       -15.6060
 107   1.0000      -0.562674       -15.3111
 108   1.0000      -0.560262       -15.2455
 109   1.0000      -0.552836       -15.0434
 110   1.0000      -0.551215       -14.9993
 111   1.0000      -0.536413       -14.5965
 112   1.0000      -0.532598       -14.4927
 113   1.0000      -0.531960       -14.4754
 114   1.0000      -0.523143       -14.2354
 115   1.0000      -0.518337       -14.1047
 116   1.0000      -0.510869       -13.9014
 117   1.0000      -0.508651       -13.8411
 118   1.0000      -0.507656       -13.8140
 119   1.0000      -0.505822       -13.7641
 120   1.0000      -0.497922       -13.5491
 121   1.0000      -0.489597       -13.3226
 122   1.0000      -0.485703       -13.2166
 123   1.0000      -0.481688       -13.1074
 124   1.0000      -0.480281       -13.0691
 125   1.0000      -0.478320       -13.0157
 126   1.0000      -0.470050       -12.7907
 127   1.0000      -0.467792       -12.7293
 128   1.0000      -0.463060       -12.6005
 129   1.0000      -0.458598       -12.4791
 130   1.0000      -0.453522       -12.3410
 131   1.0000      -0.453128       -12.3302
 132   1.0000      -0.446921       -12.1613
 133   1.0000      -0.444801       -12.1037
 134   1.0000      -0.443023       -12.0553
 135   1.0000      -0.442217       -12.0333
 136   1.0000      -0.437771       -11.9124
 137   1.0000      -0.436285       -11.8719
 138   1.0000      -0.432999       -11.7825
 139   1.0000      -0.430278       -11.7085
 140   1.0000      -0.426700       -11.6111
 141   1.0000      -0.423030       -11.5112
 142   1.0000      -0.422197       -11.4886
 143   1.0000      -0.420366       -11.4387
 144   1.0000      -0.419957       -11.4276
 145   1.0000      -0.416825       -11.3424
 146   1.0000      -0.416184       -11.3249
 147   1.0000      -0.415511       -11.3066
 148   1.0000      -0.414302       -11.2737
 149   1.0000      -0.410559       -11.1719
 150   1.0000      -0.408208       -11.1079
 151   1.0000      -0.397757       -10.8235
 152   1.0000      -0.396196       -10.7811
 153   1.0000      -0.393484       -10.7072
 154   1.0000      -0.389928       -10.6105
 155   1.0000      -0.388303       -10.5663
 156   1.0000      -0.386347       -10.5130
 157   1.0000      -0.383086       -10.4243
 158   1.0000      -0.380170       -10.3449
 159   1.0000      -0.378007       -10.2861
 160   1.0000      -0.372840       -10.1455
 161   1.0000      -0.369218       -10.0469
 162   1.0000      -0.367186        -9.9916
 163   1.0000      -0.364737        -9.9250
 164   1.0000      -0.362487        -9.8638
 165   1.0000      -0.358148        -9.7457
 166   1.0000      -0.352962        -9.6046
 167   1.0000      -0.350928        -9.5492
 168   1.0000      -0.346332        -9.4242
 169   1.0000      -0.340668        -9.2700
 170   1.0000      -0.336722        -9.1627
 171   1.0000      -0.334927        -9.1138
 172   1.0000      -0.333009        -9.0616
 173   1.0000      -0.324618        -8.8333
 174   1.0000      -0.322822        -8.7844
 175   1.0000      -0.318554        -8.6683
 176   1.0000      -0.309698        -8.4273
 177   1.0000      -0.304166        -8.2768
 178   1.0000      -0.300319        -8.1721
 179   1.0000      -0.284946        -7.7538
 180   1.0000      -0.273490        -7.4420
 181   1.0000      -0.267411        -7.2766
 182   1.0000      -0.259269        -7.0551
 183   1.0000      -0.246201        -6.6995
 184   1.0000      -0.237210        -6.4548
 185   1.0000      -0.229679        -6.2499
 186   1.0000      -0.224435        -6.1072
 187   1.0000      -0.218609        -5.9486
 188   1.0000      -0.204910        -5.5759
 189   1.0000      -0.199789        -5.4365
 190   1.0000      -0.179379        -4.8811
 191   1.0000      -0.166516        -4.5311
 192   1.0000      -0.056870        -1.5475
 193   0.0000       0.082844         2.2543
 194   0.0000       0.129070         3.5122
 195   0.0000       0.136806         3.7227
 196   0.0000       0.138621         3.7721
 197   0.0000       0.159680         4.3451

                 SPIN DOWN ORBITALS
  NO   OCC          E(Eh)            E(eV)
   0   1.0000     -88.905175     -2419.2328
   1   1.0000     -88.853641     -2417.8305
   2   1.0000     -24.690316      -671.8576
   3   1.0000     -24.687607      -671.7839
   4   1.0000     -19.196701      -522.3688
   5   1.0000     -19.179957      -521.9132
   6   1.0000     -19.174370      -521.7611
   7   1.0000     -19.172884      -521.7207
   8   1.0000     -14.295417      -388.9981
   9   1.0000     -14.292438      -388.9170
  10   1.0000     -10.287854      -279.9467
  11   1.0000     -10.268607      -279.4230
  12   1.0000     -10.264902      -279.3222
  13   1.0000     -10.262332      -279.2522
  14   1.0000     -10.261532      -279.2305
  15   1.0000     -10.258774      -279.1554
  16   1.0000     -10.254712      -279.0449
  17   1.0000     -10.254315      -279.0341
  18   1.0000     -10.254050      -279.0269
  19   1.0000     -10.252955      -278.9971
  20   1.0000     -10.252166      -278.9756
  21   1.0000     -10.251443      -278.9559
  22   1.0000     -10.235577      -278.5242
  23   1.0000     -10.233701      -278.4732
  24   1.0000     -10.232277      -278.4344
  25   1.0000     -10.228838      -278.3408
  26   1.0000     -10.226262      -278.2707
  27   1.0000     -10.224391      -278.2198
  28   1.0000     -10.224044      -278.2104
  29   1.0000     -10.216243      -277.9981
  30   1.0000     -10.214423      -277.9486
  31   1.0000     -10.214125      -277.9405
  32   1.0000     -10.213269      -277.9172
  33   1.0000     -10.211944      -277.8811
  34   1.0000     -10.211270      -277.8628
  35   1.0000     -10.208855      -277.7971
  36   1.0000     -10.207928      -277.7719
  37   1.0000     -10.205250      -277.6990
  38   1.0000     -10.203242      -277.6443
  39   1.0000     -10.201451      -277.5956
  40   1.0000     -10.195131      -277.4236
  41   1.0000     -10.191544      -277.3260
  42   1.0000     -10.191466      -277.3239
  43   1.0000     -10.189283      -277.2645
  44   1.0000     -10.189244      -277.2634
  45   1.0000     -10.187715      -277.2218
  46   1.0000     -10.187293      -277.2103
  47   1.0000     -10.184073      -277.1227
  48   1.0000     -10.183498      -277.1071
  49   1.0000     -10.180746      -277.0322
  50   1.0000     -10.174978      -276.8752
  51   1.0000     -10.162843      -276.5450
  52   1.0000      -8.019535      -218.2226
  53   1.0000      -7.965497      -216.7522
  54   1.0000      -5.978972      -162.6961
  55   1.0000      -5.974705      -162.5800
  56   1.0000      -5.972127      -162.5098
  57   1.0000      -5.925213      -161.2332
  58   1.0000      -5.920737      -161.1114
  59   1.0000      -5.917840      -161.0326
  60   1.0000      -1.217069       -33.1181
  61   1.0000      -1.201344       -32.6902
  62   1.0000      -1.106069       -30.0977
  63   1.0000      -1.087975       -29.6053
  64   1.0000      -1.080880       -29.4123
  65   1.0000      -1.068527       -29.0761
  66   1.0000      -0.967406       -26.3245
  67   1.0000      -0.946300       -25.7501
  68   1.0000      -0.911326       -24.7984
  69   1.0000      -0.897354       -24.4182
  70   1.0000      -0.887202       -24.1420
  71   1.0000      -0.882716       -24.0199
  72   1.0000      -0.869215       -23.6526
  73   1.0000      -0.850520       -23.1438
  74   1.0000      -0.827623       -22.5208
  75   1.0000      -0.824569       -22.4377
  76   1.0000      -0.811794       -22.0900
  77   1.0000      -0.808191       -21.9920
  78   1.0000      -0.797026       -21.6882
  79   1.0000      -0.792160       -21.5558
  80   1.0000      -0.783441       -21.3185
  81   1.0000      -0.781224       -21.2582
  82   1.0000      -0.774745       -21.0819
  83   1.0000      -0.760224       -20.6867
  84   1.0000      -0.754903       -20.5420
  85   1.0000      -0.750339       -20.4178
  86   1.0000      -0.742987       -20.2177
  87   1.0000      -0.737647       -20.0724
  88   1.0000      -0.723825       -19.6963
  89   1.0000      -0.707073       -19.2404
  90   1.0000      -0.694117       -18.8879
  91   1.0000      -0.674054       -18.3420
  92   1.0000      -0.668367       -18.1872
  93   1.0000      -0.658929       -17.9304
  94   1.0000      -0.653602       -17.7854
  95   1.0000      -0.651550       -17.7296
  96   1.0000      -0.647935       -17.6312
  97   1.0000      -0.632574       -17.2132
  98   1.0000      -0.623496       -16.9662
  99   1.0000      -0.614542       -16.7225
 100   1.0000      -0.609529       -16.5861
 101   1.0000      -0.599606       -16.3161
 102   1.0000      -0.596084       -16.2203
 103   1.0000      -0.592091       -16.1116
 104   1.0000      -0.588362       -16.0101
 105   1.0000      -0.575429       -15.6582
 106   1.0000      -0.573373       -15.6023
 107   1.0000      -0.561073       -15.2676
 108   1.0000      -0.559445       -15.2233
 109   1.0000      -0.551619       -15.0103
 110   1.0000      -0.550458       -14.9787
 111   1.0000      -0.535513       -14.5720
 112   1.0000      -0.532534       -14.4910
 113   1.0000      -0.531084       -14.4515
 114   1.0000      -0.522520       -14.2185
 115   1.0000      -0.517797       -14.0900
 116   1.0000      -0.510608       -13.8944
 117   1.0000      -0.508272       -13.8308
 118   1.0000      -0.507145       -13.8001
 119   1.0000      -0.505299       -13.7499
 120   1.0000      -0.497332       -13.5331
 121   1.0000      -0.489046       -13.3076
 122   1.0000      -0.484936       -13.1958
 123   1.0000      -0.480996       -13.0886
 124   1.0000      -0.478402       -13.0180
 125   1.0000      -0.475034       -12.9263
 126   1.0000      -0.469568       -12.7776
 127   1.0000      -0.466849       -12.7036
 128   1.0000      -0.461983       -12.5712
 129   1.0000      -0.458290       -12.4707
 130   1.0000      -0.453343       -12.3361
 131   1.0000      -0.452943       -12.3252
 132   1.0000      -0.446259       -12.1433
 133   1.0000      -0.444172       -12.0865
 134   1.0000      -0.442824       -12.0499
 135   1.0000      -0.439938       -11.9713
 136   1.0000      -0.437157       -11.8956
 137   1.0000      -0.435893       -11.8613
 138   1.0000      -0.432263       -11.7625
 139   1.0000      -0.428054       -11.6479
 140   1.0000      -0.425414       -11.5761
 141   1.0000      -0.422340       -11.4925
 142   1.0000      -0.421636       -11.4733
 143   1.0000      -0.419951       -11.4275
 144   1.0000      -0.418462       -11.3869
 145   1.0000      -0.416657       -11.3378
 146   1.0000      -0.415887       -11.3169
 147   1.0000      -0.414925       -11.2907
 148   1.0000      -0.412791       -11.2326
 149   1.0000      -0.409596       -11.1457
 150   1.0000      -0.406121       -11.0511
 151   1.0000      -0.397217       -10.8088
 152   1.0000      -0.395640       -10.7659
 153   1.0000      -0.392656       -10.6847
 154   1.0000      -0.389359       -10.5950
 155   1.0000      -0.387707       -10.5500
 156   1.0000      -0.385624       -10.4934
 157   1.0000      -0.381222       -10.3736
 158   1.0000      -0.379654       -10.3309
 159   1.0000      -0.377070       -10.2606
 160   1.0000      -0.371969       -10.1218
 161   1.0000      -0.368689       -10.0325
 162   1.0000      -0.366805        -9.9813
 163   1.0000      -0.364159        -9.9093
 164   1.0000      -0.362171        -9.8552
 165   1.0000      -0.357517        -9.7285
 166   1.0000      -0.352643        -9.5959
 167   1.0000      -0.349547        -9.5117
 168   1.0000      -0.344442        -9.3727
 169   1.0000      -0.340115        -9.2550
 170   1.0000      -0.334749        -9.1090
 171   1.0000      -0.332254        -9.0411
 172   1.0000      -0.328347        -8.9348
 173   1.0000      -0.323681        -8.8078
 174   1.0000      -0.321531        -8.7493
 175   1.0000      -0.314932        -8.5697
 176   1.0000      -0.308702        -8.4002
 177   1.0000      -0.297636        -8.0991
 178   1.0000      -0.291472        -7.9314
 179   1.0000      -0.284131        -7.7316
 180   1.0000      -0.272200        -7.4069
 181   1.0000      -0.262216        -7.1353
 182   1.0000      -0.253531        -6.8989
 183   1.0000      -0.239986        -6.5303
 184   1.0000      -0.232265        -6.3202
 185   1.0000      -0.226592        -6.1659
 186   1.0000      -0.217696        -5.9238
 187   1.0000      -0.210953        -5.7403
 188   1.0000      -0.200280        -5.4499
 189   1.0000      -0.196326        -5.3423
 190   1.0000      -0.168727        -4.5913
 191   1.0000      -0.156189        -4.2501
 192   0.0000       0.082103         2.2341
 193   0.0000       0.121374         3.3027
 194   0.0000       0.134824         3.6687
 195   0.0000       0.138126         3.7586
 196   0.0000       0.152148         4.1402

MULLIKEN ATOMIC CHARGES AND SPIN POPULATIONS
--------------------------------------------
   0 C :   -0.186038    0.201154
   1 C :    0.251278    0.006518
   2 C :    0.114561    0.111581
   3 C :    0.020244    0.144081
   4 C :   -0.003379   -0.059291
   5 C :    0.020823   -0.085115
   6 N :   -0.141157    0.145988
   7 C :   -0.009500    0.145656
   8 C :   -0.023017   -0.014833
   9 N :   -0.115615    0.213981
  10 F :   -0.230170    0.001450
  11 F :   -0.220648    0.007002
  12 C :   -0.045077    0.091968
  13 C :   -0.017593   -0.062354
  14 C :   -0.090549    0.096339
  15 S :    0.108267    0.033980
  16 C :   -0.085562   -0.060415
  17 C :   -0.005637   -0.035240
  18 C :   -0.089379    0.040273
  19 C :    0.181277   -0.021510
  20 C :    0.155443    0.036860
  21 C :   -0.076429   -0.023458
  22 C :    0.032402    0.037001
  23 C :   -0.003658    0.004378
  24 C :   -0.001048    0.003578
  25 C :   -0.114214   -0.001836
  26 C :    0.162210    0.002482
  27 C :    0.159967   -0.001089
  28 C :   -0.029133    0.004291
  29 O :   -0.369390    0.000026
  30 C :    0.117263    0.000006
  31 C :   -0.030112    0.000004
  32 O :   -0.348567   -0.000037
  33 C :    0.158705    0.000000
  34 C :   -0.038226   -0.000001
  35 O :   -0.353803    0.004018
  36 C :    0.156152   -0.000423
  37 C :   -0.037591    0.000006
  38 O :   -0.376453   -0.001313
  39 C :    0.153947    0.000114
  40 C :   -0.064396    0.000337
  41 C :    0.075806   -0.026837
  42 C :   -0.039481    0.031258
  43 C :   -0.054747   -0.021909
  44 C :    0.105579    0.044104
  45 C :   -0.050338   -0.025265
  46 C :   -0.044414    0.035590
  47 C :   -0.098688   -0.017811
  48 S :    0.067612    0.003588
  49 C :   -0.093284    0.015100
  50 C :    0.010484   -0.009461
  51 C :   -0.032716    0.020434
  52 H :   -0.035013   -0.009276
  53 H :   -0.008199   -0.003761
  54 H :   -0.026161    0.002323
  55 H :   -0.031856   -0.002312
  56 H :   -0.017533    0.000926
  57 H :   -0.004054   -0.001556
  58 H :   -0.009523   -0.000830
  59 H :   -0.021330    0.000095
  60 H :    0.006815   -0.000219
  61 H :    0.027889    0.000047
  62 H :    0.028431    0.000036
  63 H :    0.038848    0.000002
  64 H :    0.024983   -0.000001
  65 H :    0.040135   -0.000001
  66 H :    0.013883    0.000008
  67 H :    0.021840    0.000001
  68 H :    0.035540   -0.000000
  69 H :    0.014144   -0.000000
  70 H :    0.040501    0.000000
  71 H :    0.021555    0.000401
  72 H :    0.028555    0.000476
  73 H :    0.030271   -0.000001
  74 H :    0.017133   -0.000028
  75 H :    0.031049   -0.000004
  76 H :    0.017204    0.000159
  77 H :    0.021201    0.000023
  78 H :    0.058775    0.000986
  79 H :    0.044314    0.000061
  80 H :    0.019776    0.000045
  81 H :   -0.007910   -0.001316
  82 H :   -0.003010    0.000787
  83 H :   -0.011404    0.000965
  84 H :    0.012673   -0.001787
  85 H :    0.039006   -0.000682
  86 H :    0.004792    0.000335
  87 H :    0.004665   -0.000848
Sum of atomic charges         :   -1.0000000

LOEWDIN ATOMIC CHARGES AND SPIN POPULATIONS
-------------------------------------------
   0 C :   -0.121950    0.154847
   1 C :    0.029647    0.029953
   2 C :    0.028566    0.099571
   3 C :   -0.132442    0.111440
   4 C :   -0.001890   -0.035695
   5 C :   -0.009362   -0.053586
   6 N :   -0.130869    0.137803
   7 C :   -0.045050    0.123804
   8 C :   -0.024198    0.006864
   9 N :   -0.119064    0.192378
  10 F :   -0.090824    0.002308
  11 F :   -0.079950    0.010281
  12 C :   -0.097155    0.067116
  13 C :   -0.069723   -0.040527
  14 C :   -0.222109    0.076354
  15 S :    0.455981    0.033129
  16 C :   -0.145483   -0.028828
  17 C :   -0.041701   -0.017885
  18 C :   -0.052204    0.031410
  19 C :    0.015180   -0.012928
  20 C :    0.021364    0.028346
  21 C :   -0.054654   -0.014070
  22 C :   -0.028822    0.026604
  23 C :   -0.036500    0.001959
  24 C :   -0.024295    0.003687
  25 C :   -0.082576   -0.000951
  26 C :    0.007490    0.002047
  27 C :    0.029192    0.000101
  28 C :   -0.023866    0.002810
  29 O :   -0.120531    0.000124
  30 C :    0.079948    0.000030
  31 C :   -0.067927    0.000005
  32 O :   -0.117773   -0.000052
  33 C :    0.080826    0.000007
  34 C :   -0.071693    0.000001
  35 O :   -0.122171    0.005185
  36 C :    0.082015   -0.000052
  37 C :   -0.073573   -0.000010
  38 O :   -0.123789   -0.001860
  39 C :    0.077468    0.000297
  40 C :   -0.075878    0.000492
  41 C :   -0.025129   -0.011665
  42 C :   -0.027288    0.022856
  43 C :   -0.031259   -0.013494
  44 C :   -0.068823    0.031670
  45 C :   -0.015986   -0.015824
  46 C :   -0.034402    0.025998
  47 C :   -0.153818   -0.010491
  48 S :    0.409809    0.003493
  49 C :   -0.205077    0.012341
  50 C :   -0.072309   -0.005887
  51 C :   -0.080337    0.015243
  52 H :    0.026363    0.000466
  53 H :    0.020244    0.000211
  54 H :    0.016421   -0.000091
  55 H :    0.020966    0.000344
  56 H :    0.025194    0.000001
  57 H :    0.028273    0.000410
  58 H :    0.027381   -0.000144
  59 H :    0.022446    0.000043
  60 H :    0.037789    0.000497
  61 H :    0.011887    0.000034
  62 H :    0.011958    0.000021
  63 H :    0.028374    0.000002
  64 H :    0.027042   -0.000000
  65 H :    0.028830    0.000000
  66 H :    0.007692    0.000004
  67 H :    0.008475    0.000005
  68 H :    0.027127   -0.000000
  69 H :    0.022221    0.000000
  70 H :    0.029076   -0.000000
  71 H :    0.010014    0.000248
  72 H :    0.012743    0.000264
  73 H :    0.024584    0.000004
  74 H :    0.023368   -0.000016
  75 H :    0.024937    0.000002
  76 H :    0.007201    0.000211
  77 H :    0.019176   -0.000000
  78 H :    0.033148    0.000749
  79 H :    0.033787    0.000024
  80 H :    0.021688    0.000018
  81 H :    0.027552   -0.000058
  82 H :    0.016106   -0.000001
  83 H :    0.024898    0.000012
  84 H :    0.024948   -0.000080
  85 H :    0.018868    0.000050
  86 H :    0.026942   -0.000010
  87 H :    0.027246    0.000033

  Mayer bond orders larger than 0.100000
B(  0-C ,  1-C ) :   1.2820 B(  0-C ,  5-C ) :   1.2599 B(  0-C , 52-H ) :   1.0339
B(  1-C ,  2-C ) :   1.3306 B(  1-C , 10-F ) :   1.0392 B(  2-C ,  3-C ) :   1.2563
B(  2-C , 11-F ) :   1.0771 B(  3-C ,  4-C ) :   1.1872 B(  3-C , 16-C ) :   1.1322
B(  4-C ,  5-C ) :   1.2014 B(  4-C ,  6-N ) :   1.4681 B(  5-C ,  9-N ) :   1.3799
B(  6-N ,  7-C ) :   1.5149 B(  7-C ,  8-C ) :   1.2745 B(  7-C , 17-C ) :   0.9997
B(  8-C ,  9-N ) :   1.5897 B(  8-C , 23-C ) :   0.9845 B( 12-C , 13-C ) :   1.2866
B( 12-C , 16-C ) :   1.4789 B( 12-C , 53-H ) :   0.9951 B( 13-C , 14-C ) :   1.4939
B( 13-C , 54-H ) :   0.9949 B( 14-C , 15-S ) :   1.0794 B( 14-C , 41-C ) :   1.0646
B( 15-S , 16-C ) :   1.1422 B( 17-C , 18-C ) :   1.3461 B( 17-C , 22-C ) :   1.3733
B( 18-C , 19-C ) :   1.2920 B( 18-C , 55-H ) :   1.0098 B( 19-C , 20-C ) :   1.3152
B( 19-C , 38-O ) :   1.0694 B( 20-C , 21-C ) :   1.3899 B( 20-C , 35-O ) :   1.1144
B( 21-C , 22-C ) :   1.3870 B( 21-C , 56-H ) :   0.9970 B( 22-C , 57-H ) :   0.9881
B( 23-C , 24-C ) :   1.3912 B( 23-C , 28-C ) :   1.3571 B( 24-C , 25-C ) :   1.3209
B( 24-C , 58-H ) :   0.9994 B( 25-C , 26-C ) :   1.3143 B( 25-C , 59-H ) :   1.0000
B( 26-C , 27-C ) :   1.3138 B( 26-C , 29-O ) :   1.0708 B( 27-C , 28-C ) :   1.4146
B( 27-C , 32-O ) :   1.1218 B( 28-C , 60-H ) :   0.9965 B( 29-O , 30-C ) :   0.9513
B( 30-C , 31-C ) :   1.0857 B( 30-C , 61-H ) :   0.9519 B( 30-C , 62-H ) :   0.9517
B( 31-C , 63-H ) :   0.9723 B( 31-C , 64-H ) :   0.9663 B( 31-C , 65-H ) :   0.9719
B( 32-O , 33-C ) :   0.9320 B( 33-C , 34-C ) :   1.0804 B( 33-C , 66-H ) :   0.9587
B( 33-C , 67-H ) :   0.9589 B( 34-C , 68-H ) :   0.9709 B( 34-C , 69-H ) :   0.9673
B( 34-C , 70-H ) :   0.9714 B( 35-O , 36-C ) :   0.9308 B( 36-C , 37-C ) :   1.0765
B( 36-C , 71-H ) :   0.9608 B( 36-C , 72-H ) :   0.9596 B( 37-C , 73-H ) :   0.9705
B( 37-C , 74-H ) :   0.9683 B( 37-C , 75-H ) :   0.9710 B( 38-O , 39-C ) :   0.9398
B( 39-C , 40-C ) :   1.1010 B( 39-C , 76-H ) :   0.9466 B( 39-C , 77-H ) :   0.9573
B( 40-C , 78-H ) :   0.9637 B( 40-C , 79-H ) :   0.9610 B( 40-C , 80-H ) :   0.9638
B( 41-C , 42-C ) :   1.3526 B( 41-C , 46-C ) :   1.3388 B( 42-C , 43-C ) :   1.4314
B( 42-C , 81-H ) :   0.9947 B( 43-C , 44-C ) :   1.3279 B( 43-C , 82-H ) :   0.9851
B( 44-C , 45-C ) :   1.3527 B( 44-C , 47-C ) :   1.0696 B( 45-C , 46-C ) :   1.4193
B( 45-C , 83-H ) :   0.9962 B( 46-C , 84-H ) :   0.9847 B( 47-C , 48-S ) :   1.1415
B( 47-C , 51-C ) :   1.5674 B( 48-S , 49-C ) :   1.1502 B( 49-C , 50-C ) :   1.5835
B( 49-C , 85-H ) :   0.9760 B( 50-C , 51-C ) :   1.2533 B( 50-C , 86-H ) :   0.9950
B( 51-C , 87-H ) :   0.9907

-----------------------------------------------------------------------------
         ABSORPTION SPECTRUM VIA TRANSITION ELECTRIC DIPOLE MOMENTS
-----------------------------------------------------------------------------
State   Energy  Wavelength   fosc         T2         TX        TY        TZ
        (cm-1)    (nm)                  (au**2)     (au)      (au)      (au)
-----------------------------------------------------------------------------
   0   10329.7    968.1   0.187058871   5.96165   0.40607  -2.38458  -0.33247
   1   11717.9    853.4   0.103683969   2.91298  -0.80422   1.36833   0.62761
   2   18746.9    533.4   0.104678248   1.83824  -1.22298  -0.48432  -0.32863
   3   23577.9    424.1   0.002582605   0.03606  -0.06590   0.09966  -0.14760
   4   24325.0    411.1   0.005017798   0.06791   0.15279   0.16929  -0.12612
   5   25335.7    394.7   0.336545331   4.37308  -0.08459  -1.96191  -0.71891
   6   26927.0    371.4   0.144180478   1.76277   0.20252   1.30749   0.11053
   7   27974.6    357.5   0.010761752   0.12665  -0.11971  -0.18982  -0.27620
   8   28567.9    350.0   0.355873198   4.10103   0.09031   1.89593   0.70592
   9   29125.1    343.3   0.099782835   1.12788   0.30970   0.99291   0.21468
  10   29973.0    333.6   0.031328059   0.34409  -0.29912   0.49225   0.11096
  11   32155.9    311.0   0.284982945   2.91765  -0.38465  -1.57699  -0.53179
  12   32729.7    305.5   0.555538201   5.58788   1.85225   1.38926   0.47645
  13   33346.4    299.9   0.029123098   0.28752   0.06824   0.50254  -0.17411
  14   34160.3    292.7   0.043323162   0.41752  -0.53660   0.14950  -0.32745
  15   34513.9    289.7   0.013087486   0.12484   0.17845   0.27541   0.13091
  16   35281.2    283.4   0.028615488   0.26701  -0.49650  -0.12741   0.06533
  17   36386.3    274.8   0.139094880   1.25849   0.86428   0.71456   0.03013
  18   36508.5    273.9   0.105928515   0.95520   0.88858  -0.14271   0.38112
  19   37489.9    266.7   0.049824039   0.43752   0.11966   0.64204  -0.10485
  20   38152.4    262.1   0.179038656   1.54490  -0.31215   1.14420  -0.37186
  21   38909.2    257.0   0.060348688   0.51061   0.26676   0.65672  -0.09038
  22   39028.1    256.2   0.010450636   0.08815   0.25995   0.14345  -0.00106
  23   39547.4    252.9   0.010581780   0.08809   0.29665  -0.00601  -0.00699
  24   39635.9    252.3   0.128589295   1.06805   1.02870  -0.00310   0.09910
  25   39783.7    251.4   0.017118406   0.14166  -0.27304  -0.25745  -0.02864
  26   40139.4    249.1   0.023224688   0.19048  -0.33714   0.05748  -0.27113

Dispersion correction           -0.051454376
FINAL SINGLE POINT ENERGY     -3026.152183304419

DIPOLE MOMENT
-------------
                                X             Y             Z
Electronic contribution:     76.90191      -6.62199      14.43550
Nuclear contribution   :    -80.86993       5.20593     -15.98097
                        -----------------------------------------
Total Dipole Moment    :     -3.96801      -1.41605      -1.54548
                        -----------------------------------------
Magnitude (a.u.)       :      4.48763
Magnitude (Debye)      :     11.40665

Rotational constants in cm-1:     0.001906     0.000985     0.000714
Rotational constants in MHz :    57.152567    29.530606    21.412874

                             ****ORCA TERMINATED NORMALLY****
TOTAL RUN TIME: 0 days 0 hours 13 minutes 0 seconds 242 msec
