                         Program Version 4.2.0 -  RELEASE  -
|  1> # ORCA input file
|  2> # SCF done       -150.612747475935          0.000246981856
|  3> ! wb97x-d3 def2-SVP def2/J RIJCOSX Grid4 TightSCF
|  4> %maxcore 5000
|  5> %tddft
|  6>     Mode sTDA
|  7>     Ethresh 5.0
|  8>     maxcore 5000
|  9> end
| 10>
| 11> %pal
| 12>   nprocs 6
| 13>   end
| 14> * xyz -1 2
| 15>    C        0.63959         1.47137        -0.16889
| 16>    C        1.81830         0.77799        -0.12969
| 17>    C        1.86568        -0.62513        -0.09286
| 18>    C        0.71344        -1.39703        -0.09734
| 19>    C       -0.51852        -0.67949        -0.16101
| 20>    C       -0.55937         0.73833        -0.19122
| 21>    N       -1.66095        -1.37499        -0.14808
| 22>    C       -2.81671        -0.75308        -0.17319
| 23>    C       -2.85197         0.67637        -0.28683
| 24>    N       -1.74154         1.37649        -0.27056
| 25>    F        2.98379         1.44751        -0.11440
| 26>    F        3.08467        -1.19283        -0.03269
| 27>    C        1.74099        -3.72053         0.04323
| 28>    C        1.34693        -5.04881         0.22205
| 29>    C       -0.01439        -5.19676         0.34297
| 30>    S       -0.82442        -3.65846         0.20050
| 31>    C        0.68981        -2.82979         0.01162
| 32>    C       -4.00905        -1.59108        -0.04632
| 33>    C       -4.07624        -2.78172        -0.76562
| 34>    C       -5.16144        -3.63878        -0.66989
| 35>    C       -6.20507        -3.30749         0.22047
| 36>    C       -6.10952        -2.12474         0.95426
| 37>    C       -5.04347        -1.26366         0.82289
| 38>    C       -4.09933         1.42413        -0.45552
| 39>    C       -4.24801         2.66244         0.15670
| 40>    C       -5.42428         3.37107         0.01137
| 41>    C       -6.47782         2.88843        -0.75879
| 42>    C       -6.31550         1.65559        -1.42636
| 43>    C       -5.13303         0.94831        -1.25438
| 44>    O       -7.66784         3.54529        -0.89697
| 45>    C       -7.84389         4.80510        -0.27981
| 46>    C       -9.24013         5.29314        -0.63482
| 47>    O       -7.21809         1.03579        -2.23177
| 48>    C       -8.33991         1.72074        -2.76430
| 49>    C       -8.96554         0.80622        -3.80706
| 50>    O       -7.32503        -4.02616         0.48204
| 51>    C       -7.70295        -5.15144        -0.29333
| 52>    C       -9.05798        -5.61115         0.22420
| 53>    O       -5.27523        -4.79463        -1.39688
| 54>    C       -4.44143        -5.01212        -2.51980
| 55>    C       -3.14068        -5.72871        -2.17397
| 56>    C       -0.79025        -6.39206         0.57252
| 57>    C       -2.11035        -6.30419         1.03513
| 58>    C       -2.87852        -7.41896         1.27359
| 59>    C       -2.36619        -8.70492         1.06437
| 60>    C       -1.05656        -8.81316         0.59225
| 61>    C       -0.30297        -7.68632         0.35723
| 62>    C       -3.15242        -9.88734         1.33054
| 63>    S       -2.49013       -11.47778         1.06489
| 64>    C       -3.94022       -12.22087         1.59762
| 65>    C       -4.88021       -11.30843         1.95836
| 66>    C       -4.43490        -9.98216         1.80703
| 67>    F        0.94892        -7.86995        -0.11542
| 68>    H        0.62123         2.54758        -0.18817
| 69>    H        2.77033        -3.43177        -0.05785
| 70>    H        2.04989        -5.85896         0.28041
| 71>    H       -3.25017        -3.01701        -1.41530
| 72>    H       -6.91852        -1.90205         1.63164
| 73>    H       -5.00157        -0.35842         1.40770
| 74>    H       -3.44523         3.05646         0.75854
| 75>    H       -5.52141         4.31807         0.51723
| 76>    H       -5.04071         0.01473        -1.78550
| 77>    H       -7.08958         5.51504        -0.64577
| 78>    H       -7.74231         4.71045         0.81001
| 79>    H       -9.34130         5.38087        -1.71317
| 80>    H       -9.41825         6.26303        -0.17967
| 81>    H       -9.98362         4.58798        -0.27343
| 82>    H       -8.02411         2.66329        -3.22581
| 83>    H       -9.06289         1.94327        -1.97223
| 84>    H       -8.24889         0.59310        -4.59565
| 85>    H       -9.84074         1.28320        -4.23884
| 86>    H       -9.26035        -0.13220        -3.34571
| 87>    H       -6.96240        -5.95192        -0.19129
| 88>    H       -7.77514        -4.87511        -1.35124
| 89>    H       -8.98535        -5.87127         1.27666
| 90>    H       -9.39175        -6.47951        -0.33646
| 91>    H       -9.78828        -4.81381         0.11608
| 92>    H       -4.24291        -4.06682        -3.03805
| 93>    H       -5.04101        -5.64784        -3.18041
| 94>    H       -2.51427        -5.12102        -1.52749
| 95>    H       -2.59518        -5.94891        -3.08759
| 96>    H       -3.35703        -6.66157        -1.65931
| 97>    H       -2.52690        -5.32392         1.21396
| 98>    H       -3.88740        -7.29251         1.63154
| 99>    H       -0.61710        -9.78123         0.40503
|100>    H       -4.00742       -13.29057         1.61120
|101>    H       -5.85763       -11.57166         2.32155
|102>    H       -5.04673        -9.13197         2.04722
|103> *
|104>
|105>                          ****END OF INPUT****

CARTESIAN COORDINATES (ANGSTROEM)
---------------------------------
  C      0.639590    1.471370   -0.168890
  C      1.818300    0.777990   -0.129690
  C      1.865680   -0.625130   -0.092860
  C      0.713440   -1.397030   -0.097340
  C     -0.518520   -0.679490   -0.161010
  C     -0.559370    0.738330   -0.191220
  N     -1.660950   -1.374990   -0.148080
  C     -2.816710   -0.753080   -0.173190
  C     -2.851970    0.676370   -0.286830
  N     -1.741540    1.376490   -0.270560
  F      2.983790    1.447510   -0.114400
  F      3.084670   -1.192830   -0.032690
  C      1.740990   -3.720530    0.043230
  C      1.346930   -5.048810    0.222050
  C     -0.014390   -5.196760    0.342970
  S     -0.824420   -3.658460    0.200500
  C      0.689810   -2.829790    0.011620
  C     -4.009050   -1.591080   -0.046320
  C     -4.076240   -2.781720   -0.765620
  C     -5.161440   -3.638780   -0.669890
  C     -6.205070   -3.307490    0.220470
  C     -6.109520   -2.124740    0.954260
  C     -5.043470   -1.263660    0.822890
  C     -4.099330    1.424130   -0.455520
  C     -4.248010    2.662440    0.156700
  C     -5.424280    3.371070    0.011370
  C     -6.477820    2.888430   -0.758790
  C     -6.315500    1.655590   -1.426360
  C     -5.133030    0.948310   -1.254380
  O     -7.667840    3.545290   -0.896970
  C     -7.843890    4.805100   -0.279810
  C     -9.240130    5.293140   -0.634820
  O     -7.218090    1.035790   -2.231770
  C     -8.339910    1.720740   -2.764300
  C     -8.965540    0.806220   -3.807060
  O     -7.325030   -4.026160    0.482040
  C     -7.702950   -5.151440   -0.293330
  C     -9.057980   -5.611150    0.224200
  O     -5.275230   -4.794630   -1.396880
  C     -4.441430   -5.012120   -2.519800
  C     -3.140680   -5.728710   -2.173970
  C     -0.790250   -6.392060    0.572520
  C     -2.110350   -6.304190    1.035130
  C     -2.878520   -7.418960    1.273590
  C     -2.366190   -8.704920    1.064370
  C     -1.056560   -8.813160    0.592250
  C     -0.302970   -7.686320    0.357230
  C     -3.152420   -9.887340    1.330540
  S     -2.490130  -11.477780    1.064890
  C     -3.940220  -12.220870    1.597620
  C     -4.880210  -11.308430    1.958360
  C     -4.434900   -9.982160    1.807030
  F      0.948920   -7.869950   -0.115420
  H      0.621230    2.547580   -0.188170
  H      2.770330   -3.431770   -0.057850
  H      2.049890   -5.858960    0.280410
  H     -3.250170   -3.017010   -1.415300
  H     -6.918520   -1.902050    1.631640
  H     -5.001570   -0.358420    1.407700
  H     -3.445230    3.056460    0.758540
  H     -5.521410    4.318070    0.517230
  H     -5.040710    0.014730   -1.785500
  H     -7.089580    5.515040   -0.645770
  H     -7.742310    4.710450    0.810010
  H     -9.341300    5.380870   -1.713170
  H     -9.418250    6.263030   -0.179670
  H     -9.983620    4.587980   -0.273430
  H     -8.024110    2.663290   -3.225810
  H     -9.062890    1.943270   -1.972230
  H     -8.248890    0.593100   -4.595650
  H     -9.840740    1.283200   -4.238840
  H     -9.260350   -0.132200   -3.345710
  H     -6.962400   -5.951920   -0.191290
  H     -7.775140   -4.875110   -1.351240
  H     -8.985350   -5.871270    1.276660
  H     -9.391750   -6.479510   -0.336460
  H     -9.788280   -4.813810    0.116080
  H     -4.242910   -4.066820   -3.038050
  H     -5.041010   -5.647840   -3.180410
  H     -2.514270   -5.121020   -1.527490
  H     -2.595180   -5.948910   -3.087590
  H     -3.357030   -6.661570   -1.659310
  H     -2.526900   -5.323920    1.213960
  H     -3.887400   -7.292510    1.631540
  H     -0.617100   -9.781230    0.405030
  H     -4.007420  -13.290570    1.611200
  H     -5.857630  -11.571660    2.321550
  H     -5.046730   -9.131970    2.047220

 Total Charge           Charge          ....   -1
 Multiplicity           Mult            ....    2
 Number of Electrons    NEL             ....  393
 Basis Dimension        Dim             ....  925

ORBITAL ENERGIES
----------------
                 SPIN UP ORBITALS
  NO   OCC          E(Eh)            E(eV)
   0   1.0000     -88.903343     -2419.1830
   1   1.0000     -88.848107     -2417.6799
   2   1.0000     -24.718424      -672.6225
   3   1.0000     -24.692261      -671.9106
   4   1.0000     -24.689833      -671.8445
   5   1.0000     -19.198585      -522.4201
   6   1.0000     -19.182029      -521.9696
   7   1.0000     -19.181008      -521.9418
   8   1.0000     -19.179029      -521.8879
   9   1.0000     -14.301547      -389.1649
  10   1.0000     -14.296367      -389.0239
  11   1.0000     -10.292335      -280.0687
  12   1.0000     -10.289487      -279.9912
  13   1.0000     -10.270476      -279.4739
  14   1.0000     -10.267225      -279.3854
  15   1.0000     -10.264644      -279.3152
  16   1.0000     -10.264037      -279.2987
  17   1.0000     -10.263043      -279.2716
  18   1.0000     -10.261741      -279.2362
  19   1.0000     -10.259551      -279.1766
  20   1.0000     -10.258677      -279.1528
  21   1.0000     -10.256631      -279.0971
  22   1.0000     -10.254695      -279.0444
  23   1.0000     -10.252783      -278.9924
  24   1.0000     -10.235151      -278.5126
  25   1.0000     -10.233696      -278.4730
  26   1.0000     -10.233056      -278.4556
  27   1.0000     -10.226942      -278.2892
  28   1.0000     -10.224803      -278.2310
  29   1.0000     -10.221012      -278.1279
  30   1.0000     -10.215863      -277.9878
  31   1.0000     -10.215779      -277.9855
  32   1.0000     -10.214541      -277.9518
  33   1.0000     -10.212849      -277.9058
  34   1.0000     -10.211514      -277.8694
  35   1.0000     -10.210697      -277.8472
  36   1.0000     -10.210325      -277.8371
  37   1.0000     -10.210284      -277.8360
  38   1.0000     -10.207900      -277.7711
  39   1.0000     -10.207249      -277.7534
  40   1.0000     -10.197266      -277.4817
  41   1.0000     -10.195635      -277.4373
  42   1.0000     -10.195247      -277.4268
  43   1.0000     -10.194190      -277.3980
  44   1.0000     -10.193803      -277.3875
  45   1.0000     -10.193482      -277.3787
  46   1.0000     -10.193072      -277.3676
  47   1.0000     -10.192533      -277.3529
  48   1.0000     -10.189915      -277.2817
  49   1.0000     -10.184789      -277.1422
  50   1.0000     -10.180512      -277.0258
  51   1.0000     -10.170256      -276.7467
  52   1.0000     -10.166983      -276.6577
  53   1.0000      -8.017750      -218.1741
  54   1.0000      -7.958342      -216.5575
  55   1.0000      -5.977146      -162.6464
  56   1.0000      -5.972951      -162.5323
  57   1.0000      -5.970377      -162.4622
  58   1.0000      -5.918366      -161.0469
  59   1.0000      -5.913344      -160.9103
  60   1.0000      -5.910997      -160.8464
  61   1.0000      -1.238289       -33.6956
  62   1.0000      -1.220308       -33.2063
  63   1.0000      -1.204119       -32.7658
  64   1.0000      -1.108091       -30.1527
  65   1.0000      -1.094198       -29.7746
  66   1.0000      -1.082818       -29.4650
  67   1.0000      -1.074950       -29.2509
  68   1.0000      -0.975901       -26.5556
  69   1.0000      -0.944651       -25.7053
  70   1.0000      -0.909127       -24.7386
  71   1.0000      -0.903848       -24.5949
  72   1.0000      -0.887907       -24.1612
  73   1.0000      -0.885007       -24.0823
  74   1.0000      -0.874662       -23.8008
  75   1.0000      -0.855665       -23.2838
  76   1.0000      -0.828987       -22.5579
  77   1.0000      -0.824387       -22.4327
  78   1.0000      -0.814315       -22.1586
  79   1.0000      -0.813012       -22.1232
  80   1.0000      -0.800716       -21.7886
  81   1.0000      -0.793285       -21.5864
  82   1.0000      -0.784521       -21.3479
  83   1.0000      -0.780405       -21.2359
  84   1.0000      -0.777725       -21.1630
  85   1.0000      -0.762942       -20.7607
  86   1.0000      -0.757163       -20.6035
  87   1.0000      -0.754895       -20.5417
  88   1.0000      -0.746938       -20.3252
  89   1.0000      -0.734527       -19.9875
  90   1.0000      -0.727530       -19.7971
  91   1.0000      -0.708305       -19.2740
  92   1.0000      -0.696595       -18.9553
  93   1.0000      -0.678795       -18.4709
  94   1.0000      -0.674649       -18.3581
  95   1.0000      -0.662084       -18.0162
  96   1.0000      -0.658566       -17.9205
  97   1.0000      -0.653236       -17.7754
  98   1.0000      -0.649244       -17.6668
  99   1.0000      -0.638469       -17.3736
 100   1.0000      -0.626053       -17.0358
 101   1.0000      -0.619332       -16.8529
 102   1.0000      -0.613715       -16.7000
 103   1.0000      -0.603397       -16.4193
 104   1.0000      -0.600712       -16.3462
 105   1.0000      -0.599284       -16.3074
 106   1.0000      -0.594466       -16.1762
 107   1.0000      -0.577037       -15.7020
 108   1.0000      -0.575487       -15.6598
 109   1.0000      -0.565821       -15.3968
 110   1.0000      -0.561671       -15.2838
 111   1.0000      -0.557435       -15.1686
 112   1.0000      -0.554585       -15.0910
 113   1.0000      -0.538685       -14.6584
 114   1.0000      -0.534186       -14.5359
 115   1.0000      -0.532177       -14.4813
 116   1.0000      -0.525950       -14.3118
 117   1.0000      -0.523552       -14.2466
 118   1.0000      -0.523385       -14.2420
 119   1.0000      -0.515531       -14.0283
 120   1.0000      -0.513300       -13.9676
 121   1.0000      -0.511929       -13.9303
 122   1.0000      -0.509764       -13.8714
 123   1.0000      -0.507145       -13.8001
 124   1.0000      -0.495162       -13.4740
 125   1.0000      -0.490975       -13.3601
 126   1.0000      -0.488073       -13.2812
 127   1.0000      -0.482247       -13.1226
 128   1.0000      -0.480164       -13.0659
 129   1.0000      -0.475911       -12.9502
 130   1.0000      -0.469462       -12.7747
 131   1.0000      -0.467082       -12.7099
 132   1.0000      -0.462818       -12.5939
 133   1.0000      -0.459990       -12.5170
 134   1.0000      -0.455149       -12.3852
 135   1.0000      -0.448306       -12.1990
 136   1.0000      -0.445029       -12.1098
 137   1.0000      -0.443991       -12.0816
 138   1.0000      -0.439924       -11.9709
 139   1.0000      -0.439145       -11.9497
 140   1.0000      -0.438804       -11.9405
 141   1.0000      -0.437953       -11.9173
 142   1.0000      -0.434595       -11.8259
 143   1.0000      -0.431512       -11.7420
 144   1.0000      -0.430753       -11.7214
 145   1.0000      -0.425425       -11.5764
 146   1.0000      -0.424026       -11.5383
 147   1.0000      -0.422795       -11.5048
 148   1.0000      -0.420312       -11.4373
 149   1.0000      -0.418271       -11.3817
 150   1.0000      -0.416497       -11.3335
 151   1.0000      -0.414288       -11.2734
 152   1.0000      -0.413588       -11.2543
 153   1.0000      -0.410495       -11.1701
 154   1.0000      -0.408270       -11.1096
 155   1.0000      -0.404112       -10.9965
 156   1.0000      -0.398862       -10.8536
 157   1.0000      -0.394881       -10.7453
 158   1.0000      -0.391032       -10.6405
 159   1.0000      -0.389940       -10.6108
 160   1.0000      -0.386023       -10.5042
 161   1.0000      -0.382883       -10.4188
 162   1.0000      -0.382266       -10.4020
 163   1.0000      -0.378629       -10.3030
 164   1.0000      -0.372917       -10.1476
 165   1.0000      -0.369712       -10.0604
 166   1.0000      -0.368954       -10.0397
 167   1.0000      -0.366232        -9.9657
 168   1.0000      -0.364566        -9.9204
 169   1.0000      -0.360374        -9.8063
 170   1.0000      -0.354963        -9.6590
 171   1.0000      -0.353367        -9.6156
 172   1.0000      -0.348408        -9.4807
 173   1.0000      -0.344489        -9.3740
 174   1.0000      -0.342413        -9.3175
 175   1.0000      -0.337428        -9.1819
 176   1.0000      -0.334202        -9.0941
 177   1.0000      -0.326237        -8.8774
 178   1.0000      -0.323768        -8.8102
 179   1.0000      -0.321089        -8.7373
 180   1.0000      -0.314945        -8.5701
 181   1.0000      -0.308082        -8.3833
 182   1.0000      -0.303735        -8.2650
 183   1.0000      -0.282398        -7.6844
 184   1.0000      -0.261739        -7.1223
 185   1.0000      -0.260920        -7.1000
 186   1.0000      -0.257109        -6.9963
 187   1.0000      -0.247713        -6.7406
 188   1.0000      -0.234505        -6.3812
 189   1.0000      -0.228422        -6.2157
 190   1.0000      -0.224909        -6.1201
 191   1.0000      -0.222378        -6.0512
 192   1.0000      -0.204971        -5.5775
 193   1.0000      -0.202246        -5.5034
 194   1.0000      -0.185203        -5.0396
 195   1.0000      -0.164764        -4.4835
 196   1.0000      -0.061806        -1.6818
 197   0.0000       0.084164         2.2902
 198   0.0000       0.132763         3.6127
 199   0.0000       0.139583         3.7982
 200   0.0000       0.149939         4.0801
 201   0.0000       0.156779         4.2662

                 SPIN DOWN ORBITALS
  NO   OCC          E(Eh)            E(eV)
   0   1.0000     -88.903320     -2419.1823
   1   1.0000     -88.848031     -2417.6778
   2   1.0000     -24.718342      -672.6203
   3   1.0000     -24.691807      -671.8982
   4   1.0000     -24.689774      -671.8429
   5   1.0000     -19.198567      -522.4196
   6   1.0000     -19.182040      -521.9698
   7   1.0000     -19.181038      -521.9426
   8   1.0000     -19.178937      -521.8854
   9   1.0000     -14.299201      -389.1010
  10   1.0000     -14.292823      -388.9275
  11   1.0000     -10.291967      -280.0587
  12   1.0000     -10.289487      -279.9912
  13   1.0000     -10.270403      -279.4719
  14   1.0000     -10.267225      -279.3854
  15   1.0000     -10.264644      -279.3152
  16   1.0000     -10.264061      -279.2993
  17   1.0000     -10.263046      -279.2717
  18   1.0000     -10.261885      -279.2401
  19   1.0000     -10.259744      -279.1818
  20   1.0000     -10.258430      -279.1461
  21   1.0000     -10.256524      -279.0942
  22   1.0000     -10.253307      -279.0067
  23   1.0000     -10.252610      -278.9877
  24   1.0000     -10.235151      -278.5126
  25   1.0000     -10.233790      -278.4756
  26   1.0000     -10.232594      -278.4430
  27   1.0000     -10.226734      -278.2836
  28   1.0000     -10.225120      -278.2397
  29   1.0000     -10.221240      -278.1341
  30   1.0000     -10.216031      -277.9923
  31   1.0000     -10.215863      -277.9878
  32   1.0000     -10.214541      -277.9518
  33   1.0000     -10.213395      -277.9206
  34   1.0000     -10.211162      -277.8598
  35   1.0000     -10.211155      -277.8596
  36   1.0000     -10.210795      -277.8499
  37   1.0000     -10.210759      -277.8489
  38   1.0000     -10.207291      -277.7545
  39   1.0000     -10.206578      -277.7351
  40   1.0000     -10.197319      -277.4832
  41   1.0000     -10.195248      -277.4268
  42   1.0000     -10.194671      -277.4111
  43   1.0000     -10.194120      -277.3961
  44   1.0000     -10.193756      -277.3862
  45   1.0000     -10.193708      -277.3849
  46   1.0000     -10.193186      -277.3707
  47   1.0000     -10.192287      -277.3462
  48   1.0000     -10.189623      -277.2737
  49   1.0000     -10.183615      -277.1103
  50   1.0000     -10.181036      -277.0401
  51   1.0000     -10.169448      -276.7247
  52   1.0000     -10.165215      -276.6096
  53   1.0000      -8.017732      -218.1736
  54   1.0000      -7.958282      -216.5559
  55   1.0000      -5.977131      -162.6460
  56   1.0000      -5.972938      -162.5319
  57   1.0000      -5.970307      -162.4603
  58   1.0000      -5.918339      -161.0462
  59   1.0000      -5.913309      -160.9093
  60   1.0000      -5.910739      -160.8394
  61   1.0000      -1.238020       -33.6882
  62   1.0000      -1.219352       -33.1802
  63   1.0000      -1.203445       -32.7474
  64   1.0000      -1.108039       -30.1513
  65   1.0000      -1.094101       -29.7720
  66   1.0000      -1.082832       -29.4653
  67   1.0000      -1.074856       -29.2483
  68   1.0000      -0.970955       -26.4210
  69   1.0000      -0.944466       -25.7002
  70   1.0000      -0.907811       -24.7028
  71   1.0000      -0.899611       -24.4797
  72   1.0000      -0.886489       -24.1226
  73   1.0000      -0.884419       -24.0663
  74   1.0000      -0.872925       -23.7535
  75   1.0000      -0.852830       -23.2067
  76   1.0000      -0.828639       -22.5484
  77   1.0000      -0.823708       -22.4142
  78   1.0000      -0.813998       -22.1500
  79   1.0000      -0.812493       -22.1091
  80   1.0000      -0.800591       -21.7852
  81   1.0000      -0.793014       -21.5790
  82   1.0000      -0.783192       -21.3117
  83   1.0000      -0.779484       -21.2108
  84   1.0000      -0.775782       -21.1101
  85   1.0000      -0.762396       -20.7459
  86   1.0000      -0.756517       -20.5859
  87   1.0000      -0.754312       -20.5259
  88   1.0000      -0.745782       -20.2938
  89   1.0000      -0.733256       -19.9529
  90   1.0000      -0.726237       -19.7619
  91   1.0000      -0.706504       -19.2250
  92   1.0000      -0.695970       -18.9383
  93   1.0000      -0.678439       -18.4613
  94   1.0000      -0.671446       -18.2710
  95   1.0000      -0.661645       -18.0043
  96   1.0000      -0.658231       -17.9114
  97   1.0000      -0.651485       -17.7278
  98   1.0000      -0.648781       -17.6542
  99   1.0000      -0.637490       -17.3470
 100   1.0000      -0.625480       -17.0202
 101   1.0000      -0.618452       -16.8289
 102   1.0000      -0.612502       -16.6670
 103   1.0000      -0.602549       -16.3962
 104   1.0000      -0.599551       -16.3146
 105   1.0000      -0.598711       -16.2917
 106   1.0000      -0.594234       -16.1699
 107   1.0000      -0.576671       -15.6920
 108   1.0000      -0.575325       -15.6554
 109   1.0000      -0.564550       -15.3622
 110   1.0000      -0.560874       -15.2622
 111   1.0000      -0.556237       -15.1360
 112   1.0000      -0.553367       -15.0579
 113   1.0000      -0.537912       -14.6373
 114   1.0000      -0.534109       -14.5338
 115   1.0000      -0.531405       -14.4603
 116   1.0000      -0.525480       -14.2990
 117   1.0000      -0.523102       -14.2343
 118   1.0000      -0.522790       -14.2258
 119   1.0000      -0.515149       -14.0179
 120   1.0000      -0.513059       -13.9610
 121   1.0000      -0.511683       -13.9236
 122   1.0000      -0.509343       -13.8599
 123   1.0000      -0.506575       -13.7846
 124   1.0000      -0.494347       -13.4519
 125   1.0000      -0.490148       -13.3376
 126   1.0000      -0.487011       -13.2522
 127   1.0000      -0.479368       -13.0443
 128   1.0000      -0.477548       -12.9948
 129   1.0000      -0.475189       -12.9305
 130   1.0000      -0.468865       -12.7585
 131   1.0000      -0.465815       -12.6755
 132   1.0000      -0.462673       -12.5900
 133   1.0000      -0.459801       -12.5118
 134   1.0000      -0.454970       -12.3804
 135   1.0000      -0.447815       -12.1857
 136   1.0000      -0.444731       -12.1017
 137   1.0000      -0.441525       -12.0145
 138   1.0000      -0.439294       -11.9538
 139   1.0000      -0.438784       -11.9399
 140   1.0000      -0.438179       -11.9235
 141   1.0000      -0.437725       -11.9111
 142   1.0000      -0.434294       -11.8177
 143   1.0000      -0.430455       -11.7133
 144   1.0000      -0.427805       -11.6412
 145   1.0000      -0.424349       -11.5471
 146   1.0000      -0.423151       -11.5145
 147   1.0000      -0.422578       -11.4989
 148   1.0000      -0.419959       -11.4277
 149   1.0000      -0.418013       -11.3747
 150   1.0000      -0.415537       -11.3073
 151   1.0000      -0.412966       -11.2374
 152   1.0000      -0.412353       -11.2207
 153   1.0000      -0.409338       -11.1387
 154   1.0000      -0.407377       -11.0853
 155   1.0000      -0.403223       -10.9723
 156   1.0000      -0.398363       -10.8400
 157   1.0000      -0.394323       -10.7301
 158   1.0000      -0.390266       -10.6197
 159   1.0000      -0.389487       -10.5985
 160   1.0000      -0.385707       -10.4956
 161   1.0000      -0.382429       -10.4064
 162   1.0000      -0.381673       -10.3858
 163   1.0000      -0.376119       -10.2347
 164   1.0000      -0.372074       -10.1246
 165   1.0000      -0.368744       -10.0340
 166   1.0000      -0.368535       -10.0283
 167   1.0000      -0.365928        -9.9574
 168   1.0000      -0.364331        -9.9139
 169   1.0000      -0.359552        -9.7839
 170   1.0000      -0.354242        -9.6394
 171   1.0000      -0.352098        -9.5811
 172   1.0000      -0.347352        -9.4519
 173   1.0000      -0.343888        -9.3577
 174   1.0000      -0.342175        -9.3111
 175   1.0000      -0.333788        -9.0828
 176   1.0000      -0.330034        -8.9807
 177   1.0000      -0.324759        -8.8371
 178   1.0000      -0.321254        -8.7418
 179   1.0000      -0.315633        -8.5888
 180   1.0000      -0.314441        -8.5564
 181   1.0000      -0.300006        -8.1636
 182   1.0000      -0.296538        -8.0692
 183   1.0000      -0.281520        -7.6605
 184   1.0000      -0.260451        -7.0872
 185   1.0000      -0.255159        -6.9432
 186   1.0000      -0.251507        -6.8439
 187   1.0000      -0.241563        -6.5733
 188   1.0000      -0.232184        -6.3180
 189   1.0000      -0.222403        -6.0519
 190   1.0000      -0.219608        -5.9758
 191   1.0000      -0.213536        -5.8106
 192   1.0000      -0.200416        -5.4536
 193   1.0000      -0.198605        -5.4043
 194   1.0000      -0.176953        -4.8151
 195   1.0000      -0.153459        -4.1758
 196   0.0000       0.082389         2.2419
 197   0.0000       0.119758         3.2588
 198   0.0000       0.137866         3.7515
 199   0.0000       0.150596         4.0979
 200   0.0000       0.153047         4.1646

MULLIKEN ATOMIC CHARGES AND SPIN POPULATIONS
--------------------------------------------
   0 C :   -0.195111    0.202521
   1 C :    0.259118   -0.002664
   2 C :    0.107499    0.124218
   3 C :    0.031070    0.128596
   4 C :    0.006519   -0.057598
   5 C :    0.027333   -0.087479
   6 N :   -0.168856    0.153400
   7 C :    0.006714    0.138286
   8 C :   -0.013092   -0.004131
   9 N :   -0.112113    0.231631
  10 F :   -0.228935    0.001056
  11 F :   -0.218444    0.008067
  12 C :   -0.052741    0.094419
  13 C :   -0.020114   -0.058572
  14 C :   -0.077925    0.099290
  15 S :    0.100024    0.015599
  16 C :   -0.081396   -0.058067
  17 C :   -0.049984   -0.024998
  18 C :   -0.089966    0.023781
  19 C :    0.176236   -0.014506
  20 C :    0.161830    0.023979
  21 C :   -0.074857   -0.015684
  22 C :    0.048428    0.026714
  23 C :   -0.008605   -0.000347
  24 C :    0.005237    0.007161
  25 C :   -0.118199   -0.004738
  26 C :    0.161106    0.006737
  27 C :    0.161949   -0.003943
  28 C :   -0.028324    0.008793
  29 O :   -0.368852    0.000457
  30 C :    0.117686   -0.000043
  31 C :   -0.030416    0.000004
  32 O :   -0.349384   -0.000290
  33 C :    0.157024    0.000030
  34 C :   -0.038622   -0.000003
  35 O :   -0.353932    0.002624
  36 C :    0.152498   -0.000281
  37 C :   -0.040719    0.000008
  38 O :   -0.374508   -0.000791
  39 C :    0.135092    0.000099
  40 C :   -0.036909    0.000019
  41 C :    0.027558   -0.034747
  42 C :   -0.052971    0.041712
  43 C :   -0.043135   -0.029701
  44 C :    0.125707    0.051152
  45 C :   -0.134724   -0.026124
  46 C :    0.233870    0.033654
  47 C :   -0.104581   -0.020831
  48 S :    0.069467    0.004049
  49 C :   -0.094749    0.017408
  50 C :    0.013470   -0.010913
  51 C :   -0.030790    0.023578
  52 F :   -0.214839    0.001435
  53 H :   -0.035234   -0.009324
  54 H :   -0.009272   -0.003925
  55 H :   -0.015720    0.002082
  56 H :   -0.011367   -0.000341
  57 H :   -0.013665    0.000620
  58 H :   -0.004846   -0.000768
  59 H :   -0.009337   -0.000951
  60 H :   -0.020270    0.000191
  61 H :    0.002120   -0.000367
  62 H :    0.027866    0.000098
  63 H :    0.028694    0.000083
  64 H :    0.038628    0.000002
  65 H :    0.025246   -0.000004
  66 H :    0.040531   -0.000002
  67 H :    0.014308   -0.000031
  68 H :    0.023662   -0.000021
  69 H :    0.035285    0.000000
  70 H :    0.015008    0.000002
  71 H :    0.039614    0.000000
  72 H :    0.032870    0.000237
  73 H :    0.019429    0.000400
  74 H :    0.032095    0.000001
  75 H :    0.020006   -0.000019
  76 H :    0.032032   -0.000005
  77 H :    0.028467   -0.000159
  78 H :    0.016945   -0.000039
  79 H :    0.040593   -0.000722
  80 H :    0.024446    0.000029
  81 H :    0.037697   -0.000007
  82 H :    0.025255   -0.001731
  83 H :   -0.009430    0.001110
  84 H :    0.000712    0.000910
  85 H :    0.038838   -0.000788
  86 H :    0.003353    0.000388
  87 H :    0.007798   -0.000976
Sum of atomic charges         :   -1.0000000

LOEWDIN ATOMIC CHARGES AND SPIN POPULATIONS
-------------------------------------------
   0 C :   -0.121718    0.155410
   1 C :    0.034156    0.022645
   2 C :    0.026827    0.108257
   3 C :   -0.124756    0.100042
   4 C :   -0.000565   -0.034581
   5 C :   -0.007872   -0.054938
   6 N :   -0.130524    0.144178
   7 C :   -0.040075    0.119381
   8 C :   -0.028917    0.015872
   9 N :   -0.126201    0.208679
  10 F :   -0.089145    0.001666
  11 F :   -0.077882    0.011698
  12 C :   -0.100871    0.069156
  13 C :   -0.064548   -0.037579
  14 C :   -0.230209    0.077518
  15 S :    0.465860    0.017315
  16 C :   -0.151541   -0.026970
  17 C :   -0.037679   -0.012941
  18 C :   -0.054203    0.019431
  19 C :    0.016450   -0.008734
  20 C :    0.022534    0.018395
  21 C :   -0.051541   -0.009315
  22 C :   -0.027375    0.020519
  23 C :   -0.034407   -0.001035
  24 C :   -0.023447    0.006290
  25 C :   -0.082478   -0.002785
  26 C :    0.007189    0.005245
  27 C :    0.028397   -0.001785
  28 C :   -0.025735    0.006099
  29 O :   -0.120260    0.000685
  30 C :    0.080238    0.000016
  31 C :   -0.067875    0.000002
  32 O :   -0.118648   -0.000383
  33 C :    0.080736    0.000006
  34 C :   -0.071844    0.000001
  35 O :   -0.122765    0.003400
  36 C :    0.081593   -0.000018
  37 C :   -0.073608   -0.000007
  38 O :   -0.121281   -0.001181
  39 C :    0.077404    0.000023
  40 C :   -0.073675   -0.000058
  41 C :   -0.052824   -0.017326
  42 C :   -0.017760    0.030276
  43 C :   -0.027857   -0.018687
  44 C :   -0.062246    0.036479
  45 C :   -0.064835   -0.016210
  46 C :    0.087044    0.024929
  47 C :   -0.153946   -0.012354
  48 S :    0.410471    0.003928
  49 C :   -0.205684    0.014230
  50 C :   -0.072148   -0.006794
  51 C :   -0.077827    0.017578
  52 F :   -0.076406    0.002160
  53 H :    0.027002    0.000426
  54 H :    0.018741    0.000172
  55 H :    0.016018   -0.000113
  56 H :    0.028016    0.000657
  57 H :    0.026425    0.000003
  58 H :    0.028603    0.000443
  59 H :    0.028171   -0.000091
  60 H :    0.022635    0.000034
  61 H :    0.036327    0.000333
  62 H :    0.011831    0.000062
  63 H :    0.012183    0.000049
  64 H :    0.028286    0.000002
  65 H :    0.027205   -0.000002
  66 H :    0.028990    0.000000
  67 H :    0.008152   -0.000016
  68 H :    0.008704   -0.000010
  69 H :    0.027007   -0.000000
  70 H :    0.022508    0.000001
  71 H :    0.028700   -0.000000
  72 H :    0.012048    0.000162
  73 H :    0.010573    0.000219
  74 H :    0.025406    0.000004
  75 H :    0.024221   -0.000011
  76 H :    0.025178   -0.000000
  77 H :    0.013567   -0.000053
  78 H :    0.015403   -0.000017
  79 H :    0.020486   -0.000137
  80 H :    0.028927    0.000021
  81 H :    0.028474    0.000001
  82 H :    0.029643   -0.000019
  83 H :    0.026925   -0.000005
  84 H :    0.023803   -0.000022
  85 H :    0.018700    0.000056
  86 H :    0.026680   -0.000011
  87 H :    0.028740    0.000034

  Mayer bond orders larger than 0.100000
B(  0-C ,  1-C ) :   1.2836 B(  0-C ,  5-C ) :   1.2508 B(  0-C , 53-H ) :   1.0369
B(  1-C ,  2-C ) :   1.3296 B(  1-C , 10-F ) :   1.0395 B(  2-C ,  3-C ) :   1.2386
B(  2-C , 11-F ) :   1.0792 B(  3-C ,  4-C ) :   1.1930 B(  3-C , 16-C ) :   1.1656
B(  4-C ,  5-C ) :   1.2143 B(  4-C ,  6-N ) :   1.4333 B(  5-C ,  9-N ) :   1.3942
B(  6-N ,  7-C ) :   1.4781 B(  7-C ,  8-C ) :   1.3188 B(  7-C , 17-C ) :   0.9752
B(  8-C ,  9-N ) :   1.5674 B(  8-C , 23-C ) :   0.9783 B( 12-C , 13-C ) :   1.2881
B( 12-C , 16-C ) :   1.4531 B( 12-C , 54-H ) :   0.9965 B( 13-C , 14-C ) :   1.4791
B( 13-C , 55-H ) :   0.9979 B( 14-C , 15-S ) :   1.0400 B( 14-C , 41-C ) :   1.1058
B( 15-S , 16-C ) :   1.1368 B( 17-C , 18-C ) :   1.3541 B( 17-C , 22-C ) :   1.3853
B( 18-C , 19-C ) :   1.2897 B( 18-C , 56-H ) :   1.0003 B( 19-C , 20-C ) :   1.3158
B( 19-C , 38-O ) :   1.0739 B( 20-C , 21-C ) :   1.3980 B( 20-C , 35-O ) :   1.1141
B( 21-C , 22-C ) :   1.3735 B( 21-C , 57-H ) :   0.9966 B( 22-C , 58-H ) :   0.9947
B( 23-C , 24-C ) :   1.3952 B( 23-C , 28-C ) :   1.3611 B( 24-C , 25-C ) :   1.3222
B( 24-C , 59-H ) :   0.9999 B( 25-C , 26-C ) :   1.3147 B( 25-C , 60-H ) :   0.9995
B( 26-C , 27-C ) :   1.3151 B( 26-C , 29-O ) :   1.0731 B( 27-C , 28-C ) :   1.4081
B( 27-C , 32-O ) :   1.1216 B( 28-C , 61-H ) :   0.9961 B( 29-O , 30-C ) :   0.9506
B( 30-C , 31-C ) :   1.0862 B( 30-C , 62-H ) :   0.9520 B( 30-C , 63-H ) :   0.9516
B( 31-C , 64-H ) :   0.9723 B( 31-C , 65-H ) :   0.9664 B( 31-C , 66-H ) :   0.9718
B( 32-O , 33-C ) :   0.9315 B( 33-C , 34-C ) :   1.0810 B( 33-C , 67-H ) :   0.9586
B( 33-C , 68-H ) :   0.9586 B( 34-C , 69-H ) :   0.9708 B( 34-C , 70-H ) :   0.9673
B( 34-C , 71-H ) :   0.9715 B( 35-O , 36-C ) :   0.9285 B( 36-C , 37-C ) :   1.0767
B( 36-C , 72-H ) :   0.9599 B( 36-C , 73-H ) :   0.9601 B( 37-C , 74-H ) :   0.9715
B( 37-C , 75-H ) :   0.9680 B( 37-C , 76-H ) :   0.9707 B( 38-O , 39-C ) :   0.9352
B( 39-C , 40-C ) :   1.1071 B( 39-C , 77-H ) :   0.9497 B( 39-C , 78-H ) :   0.9596
B( 40-C , 79-H ) :   0.9578 B( 40-C , 80-H ) :   0.9608 B( 40-C , 81-H ) :   0.9595
B( 41-C , 42-C ) :   1.3105 B( 41-C , 46-C ) :   1.3065 B( 42-C , 43-C ) :   1.4392
B( 42-C , 82-H ) :   0.9865 B( 43-C , 44-C ) :   1.3384 B( 43-C , 83-H ) :   0.9972
B( 44-C , 45-C ) :   1.2872 B( 44-C , 47-C ) :   1.0777 B( 45-C , 46-C ) :   1.4247
B( 45-C , 84-H ) :   0.9840 B( 46-C , 52-F ) :   1.0701 B( 47-C , 48-S ) :   1.1413
B( 47-C , 51-C ) :   1.5680 B( 48-S , 49-C ) :   1.1510 B( 49-C , 50-C ) :   1.5838
B( 49-C , 85-H ) :   0.9757 B( 50-C , 51-C ) :   1.2536 B( 50-C , 86-H ) :   0.9939
B( 51-C , 87-H ) :   0.9903

-----------------------------------------------------------------------------
         ABSORPTION SPECTRUM VIA TRANSITION ELECTRIC DIPOLE MOMENTS
-----------------------------------------------------------------------------
State   Energy  Wavelength   fosc         T2         TX        TY        TZ
        (cm-1)    (nm)                  (au**2)     (au)      (au)      (au)
-----------------------------------------------------------------------------
   0   11583.2    863.3   0.262889367   7.47172  -0.56241   2.64289  -0.41296
   1   12981.3    770.3   0.039186399   0.99379   0.46497  -0.87197   0.13136
   2   19849.5    503.8   0.103768253   1.72104   1.27788   0.29571  -0.02477
   3   24529.8    407.7   0.003791281   0.05088   0.08190   0.08643  -0.19159
   4   24732.7    404.3   0.491785908   6.54606   0.49442   2.48663  -0.34392
   5   26931.5    371.3   0.008850723   0.10819   0.15573  -0.28936  -0.01450
   6   27362.6    365.5   0.005706879   0.06866  -0.16534  -0.18512   0.08400
   7   28076.8    356.2   0.175419136   2.05686   0.25361   1.38917  -0.25050
   8   29064.9    344.1   0.395046326   4.47460   0.66080   1.98092  -0.33749
   9   29341.3    340.8   0.176067358   1.97549  -0.09842  -1.39061   0.17892
  10   29860.5    334.9   0.092761041   1.02269   0.69696   0.72513  -0.10548
  11   33010.5    302.9   0.200160743   1.99619  -0.86560  -1.09242   0.23139
  12   33843.0    295.5   0.185155261   1.80112   1.09516   0.75062  -0.19572
  13   34597.4    289.0   0.134816394   1.28285  -1.08783  -0.31501  -0.01548
  14   35429.9    282.2   0.016534945   0.15364   0.32343  -0.22091   0.01523
  15   37182.9    268.9   0.095801214   0.84821   0.75083   0.52020  -0.11769
  16   38007.9    263.1   0.002306998   0.01998   0.10143   0.00248   0.09843
  17   38286.6    261.2   0.147491134   1.26822   1.11625  -0.14692  -0.02488
  18   39611.7    252.5   0.004216163   0.03504   0.01749  -0.16603   0.08467
  19   39719.8    251.8   0.043160689   0.35773   0.40079  -0.44205  -0.04112
  20   39873.8    250.8   0.079415266   0.65568  -0.07626   0.78853  -0.16760

Dispersion correction           -0.051565899
FINAL SINGLE POINT ENERGY     -3125.290985647682

DIPOLE MOMENT
-------------
                                X             Y             Z
Electronic contribution:     88.61391     -16.99820      15.50510
Nuclear contribution   :    -93.44328      15.80331     -16.01107
                        -----------------------------------------
Total Dipole Moment    :     -4.82937      -1.19489      -0.50596
                        -----------------------------------------
Magnitude (a.u.)       :      5.00066
Magnitude (Debye)      :     12.71066

Rotational constants in cm-1:     0.001958     0.000985     0.000690
Rotational constants in MHz :    58.691139    29.537542    20.680725

                             ****ORCA TERMINATED NORMALLY****
TOTAL RUN TIME: 0 days 0 hours 12 minutes 46 seconds 641 msec
