                         Program Version 4.2.0 -  RELEASE  -
|  1> # ORCA input file
|  2> # SCF done       -154.841010240663          0.000562663676
|  3> ! wb97x-d3 def2-SVP def2/J RIJCOSX Grid4 TightSCF
|  4> %maxcore 5000
|  5> %tddft
|  6>     Mode sTDA
|  7>     Ethresh 5.0
|  8>     maxcore 5000
|  9> end
| 10>
| 11> %pal
| 12>   nprocs 6
| 13>   end
| 14> * xyz -1 2
| 15>    C        0.59743         1.54710        -0.00664
| 16>    C        1.77581         0.85489         0.06096
| 17>    C        1.82491        -0.54907         0.06577
| 18>    C        0.67464        -1.32025         0.00384
| 19>    C       -0.55663        -0.60382        -0.07639
| 20>    C       -0.59890         0.81395        -0.08660
| 21>    N       -1.69803        -1.29972        -0.09525
| 22>    C       -2.85709        -0.68175        -0.15056
| 23>    C       -2.88663         0.74833        -0.27733
| 24>    N       -1.77881         1.44912        -0.21125
| 25>    F        2.93845         1.52551         0.13167
| 26>    F        3.04068        -1.11942         0.15179
| 27>    C        1.69403        -3.65469         0.06719
| 28>    C        1.28881        -4.98879         0.16461
| 29>    C       -0.07594        -5.13055         0.24908
| 30>    S       -0.87293        -3.58106         0.17656
| 31>    C        0.64817        -2.75711         0.05963
| 32>    C       -4.04025        -1.52943        -0.03128
| 33>    C       -4.02264        -2.78440        -0.63947
| 34>    C       -5.06541        -3.68542        -0.50725
| 35>    C       -6.16864        -3.32477         0.29811
| 36>    C       -6.17722        -2.06183         0.89192
| 37>    C       -5.14369        -1.16583         0.73370
| 38>    C       -4.12101         1.49651        -0.51936
| 39>    C       -4.29829         2.74345         0.06715
| 40>    C       -5.46232         3.45284        -0.15326
| 41>    C       -6.47308         2.96388        -0.97519
| 42>    C       -6.28049         1.71983        -1.61389
| 43>    C       -5.11149         1.01194        -1.36630
| 44>    O       -7.64750         3.62794        -1.19216
| 45>    C       -7.85995         4.88532        -0.58173
| 46>    C       -9.23917         5.36767        -1.00415
| 47>    O       -7.13208         1.09013        -2.46414
| 48>    C       -8.28429         1.72747        -2.99002
| 49>    C       -8.87917         0.78270        -4.02377
| 50>    O       -7.26624        -4.07042         0.56090
| 51>    C       -7.30350        -5.46891         0.31316
| 52>    C       -8.54454        -6.00992         1.00732
| 53>    O       -5.08511        -4.91669        -1.10644
| 54>    C       -4.05191        -5.29265        -1.99435
| 55>    C       -4.18960        -4.64604        -3.36950
| 56>    C       -0.87450        -6.32520         0.37305
| 57>    C       -2.20097        -6.24420         0.81104
| 58>    C       -2.99221        -7.36370         0.91683
| 59>    C       -2.53584        -8.64965         0.59764
| 60>    C       -1.20773        -8.73024         0.16618
| 61>    C       -0.41476        -7.61119         0.06193
| 62>    C       -3.34989        -9.83864         0.69973
| 63>    S       -2.62357       -11.40966         0.46965
| 64>    C       -4.12596       -12.19055         0.73123
| 65>    C       -5.12739       -11.30582         0.97803
| 66>    C       -4.69045        -9.96837         0.96118
| 67>    F        0.84642        -7.78767        -0.38233
| 68>    F       -4.25346        -7.18005         1.36298
| 69>    H        0.57839         2.62358        -0.00742
| 70>    H        2.72653        -3.36658         0.00151
| 71>    H        1.98405        -5.80749         0.19066
| 72>    H       -3.16036        -3.02926        -1.23531
| 73>    H       -7.03417        -1.81200         1.49704
| 74>    H       -5.17657        -0.20925         1.23032
| 75>    H       -3.52882         3.14329         0.70734
| 76>    H       -5.58286         4.40796         0.33180
| 77>    H       -4.99470         0.06881        -1.87541
| 78>    H       -7.09198         5.59982        -0.90836
| 79>    H       -7.81200         4.78859         0.51154
| 80>    H       -9.28724         5.45872        -2.08580
| 81>    H       -9.44444         6.33505        -0.55519
| 82>    H       -9.99609         4.65763        -0.68255
| 83>    H       -8.01146         2.68005        -3.45780
| 84>    H       -9.00958         1.92304        -2.19283
| 85>    H       -8.16029         0.59704        -4.81723
| 86>    H       -9.77721         1.22012        -4.45030
| 87>    H       -9.12965        -0.16550        -3.55645
| 88>    H       -6.40465        -5.94641         0.71375
| 89>    H       -7.35554        -5.66154        -0.76375
| 90>    H       -8.48721        -5.81734         2.07526
| 91>    H       -8.62102        -7.08077         0.84196
| 92>    H       -9.43359        -5.52335         0.61502
| 93>    H       -4.16334        -6.37787        -2.08267
| 94>    H       -3.06660        -5.08617        -1.56021
| 95>    H       -5.15565        -4.89570        -3.80139
| 96>    H       -3.40442        -5.01408        -4.02400
| 97>    H       -4.11401        -3.56387        -3.30059
| 98>    H       -2.61804        -5.28706         1.08500
| 99>    H       -0.78610        -9.68767        -0.09883
|100>    H       -4.17547       -13.26039         0.68598
|101>    H       -6.14552       -11.59595         1.16686
|102>    H       -5.35131        -9.13967         1.13195
|103> *
|104>
|105>                          ****END OF INPUT****

CARTESIAN COORDINATES (ANGSTROEM)
---------------------------------
  C      0.597430    1.547100   -0.006640
  C      1.775810    0.854890    0.060960
  C      1.824910   -0.549070    0.065770
  C      0.674640   -1.320250    0.003840
  C     -0.556630   -0.603820   -0.076390
  C     -0.598900    0.813950   -0.086600
  N     -1.698030   -1.299720   -0.095250
  C     -2.857090   -0.681750   -0.150560
  C     -2.886630    0.748330   -0.277330
  N     -1.778810    1.449120   -0.211250
  F      2.938450    1.525510    0.131670
  F      3.040680   -1.119420    0.151790
  C      1.694030   -3.654690    0.067190
  C      1.288810   -4.988790    0.164610
  C     -0.075940   -5.130550    0.249080
  S     -0.872930   -3.581060    0.176560
  C      0.648170   -2.757110    0.059630
  C     -4.040250   -1.529430   -0.031280
  C     -4.022640   -2.784400   -0.639470
  C     -5.065410   -3.685420   -0.507250
  C     -6.168640   -3.324770    0.298110
  C     -6.177220   -2.061830    0.891920
  C     -5.143690   -1.165830    0.733700
  C     -4.121010    1.496510   -0.519360
  C     -4.298290    2.743450    0.067150
  C     -5.462320    3.452840   -0.153260
  C     -6.473080    2.963880   -0.975190
  C     -6.280490    1.719830   -1.613890
  C     -5.111490    1.011940   -1.366300
  O     -7.647500    3.627940   -1.192160
  C     -7.859950    4.885320   -0.581730
  C     -9.239170    5.367670   -1.004150
  O     -7.132080    1.090130   -2.464140
  C     -8.284290    1.727470   -2.990020
  C     -8.879170    0.782700   -4.023770
  O     -7.266240   -4.070420    0.560900
  C     -7.303500   -5.468910    0.313160
  C     -8.544540   -6.009920    1.007320
  O     -5.085110   -4.916690   -1.106440
  C     -4.051910   -5.292650   -1.994350
  C     -4.189600   -4.646040   -3.369500
  C     -0.874500   -6.325200    0.373050
  C     -2.200970   -6.244200    0.811040
  C     -2.992210   -7.363700    0.916830
  C     -2.535840   -8.649650    0.597640
  C     -1.207730   -8.730240    0.166180
  C     -0.414760   -7.611190    0.061930
  C     -3.349890   -9.838640    0.699730
  S     -2.623570  -11.409660    0.469650
  C     -4.125960  -12.190550    0.731230
  C     -5.127390  -11.305820    0.978030
  C     -4.690450   -9.968370    0.961180
  F      0.846420   -7.787670   -0.382330
  F     -4.253460   -7.180050    1.362980
  H      0.578390    2.623580   -0.007420
  H      2.726530   -3.366580    0.001510
  H      1.984050   -5.807490    0.190660
  H     -3.160360   -3.029260   -1.235310
  H     -7.034170   -1.812000    1.497040
  H     -5.176570   -0.209250    1.230320
  H     -3.528820    3.143290    0.707340
  H     -5.582860    4.407960    0.331800
  H     -4.994700    0.068810   -1.875410
  H     -7.091980    5.599820   -0.908360
  H     -7.812000    4.788590    0.511540
  H     -9.287240    5.458720   -2.085800
  H     -9.444440    6.335050   -0.555190
  H     -9.996090    4.657630   -0.682550
  H     -8.011460    2.680050   -3.457800
  H     -9.009580    1.923040   -2.192830
  H     -8.160290    0.597040   -4.817230
  H     -9.777210    1.220120   -4.450300
  H     -9.129650   -0.165500   -3.556450
  H     -6.404650   -5.946410    0.713750
  H     -7.355540   -5.661540   -0.763750
  H     -8.487210   -5.817340    2.075260
  H     -8.621020   -7.080770    0.841960
  H     -9.433590   -5.523350    0.615020
  H     -4.163340   -6.377870   -2.082670
  H     -3.066600   -5.086170   -1.560210
  H     -5.155650   -4.895700   -3.801390
  H     -3.404420   -5.014080   -4.024000
  H     -4.114010   -3.563870   -3.300590
  H     -2.618040   -5.287060    1.085000
  H     -0.786100   -9.687670   -0.098830
  H     -4.175470  -13.260390    0.685980
  H     -6.145520  -11.595950    1.166860
  H     -5.351310   -9.139670    1.131950

 Total Charge           Charge          ....   -1
 Multiplicity           Mult            ....    2
 Number of Electrons    NEL             ....  401
 Basis Dimension        Dim             ....  934

ORBITAL ENERGIES
----------------
                 SPIN UP ORBITALS
  NO   OCC          E(Eh)            E(eV)
   0   1.0000     -88.904603     -2419.2172
   1   1.0000     -88.850462     -2417.7440
   2   1.0000     -24.730873      -672.9613
   3   1.0000     -24.722364      -672.7297
   4   1.0000     -24.694939      -671.9834
   5   1.0000     -24.692403      -671.9145
   6   1.0000     -19.199580      -522.4471
   7   1.0000     -19.183193      -522.0012
   8   1.0000     -19.179213      -521.8929
   9   1.0000     -19.174747      -521.7714
  10   1.0000     -14.305808      -389.2808
  11   1.0000     -14.301295      -389.1580
  12   1.0000     -10.302728      -280.3515
  13   1.0000     -10.296202      -280.1739
  14   1.0000     -10.290197      -280.0105
  15   1.0000     -10.272194      -279.5206
  16   1.0000     -10.267522      -279.3935
  17   1.0000     -10.265954      -279.3508
  18   1.0000     -10.263370      -279.2805
  19   1.0000     -10.261151      -279.2201
  20   1.0000     -10.259670      -279.1798
  21   1.0000     -10.259078      -279.1637
  22   1.0000     -10.257568      -279.1226
  23   1.0000     -10.256224      -279.0860
  24   1.0000     -10.255884      -279.0768
  25   1.0000     -10.253844      -279.0213
  26   1.0000     -10.242115      -278.7021
  27   1.0000     -10.235586      -278.5245
  28   1.0000     -10.235357      -278.5182
  29   1.0000     -10.232964      -278.4531
  30   1.0000     -10.230571      -278.3880
  31   1.0000     -10.225555      -278.2515
  32   1.0000     -10.217468      -278.0314
  33   1.0000     -10.216043      -277.9927
  34   1.0000     -10.215376      -277.9745
  35   1.0000     -10.214889      -277.9613
  36   1.0000     -10.213424      -277.9214
  37   1.0000     -10.213331      -277.9189
  38   1.0000     -10.211051      -277.8568
  39   1.0000     -10.209363      -277.8109
  40   1.0000     -10.208706      -277.7930
  41   1.0000     -10.204937      -277.6905
  42   1.0000     -10.199127      -277.5323
  43   1.0000     -10.198468      -277.5144
  44   1.0000     -10.195897      -277.4445
  45   1.0000     -10.195316      -277.4287
  46   1.0000     -10.192938      -277.3640
  47   1.0000     -10.191194      -277.3165
  48   1.0000     -10.189967      -277.2831
  49   1.0000     -10.188846      -277.2526
  50   1.0000     -10.187562      -277.2177
  51   1.0000     -10.185119      -277.1512
  52   1.0000     -10.173443      -276.8335
  53   1.0000     -10.170017      -276.7402
  54   1.0000      -8.019059      -218.2097
  55   1.0000      -7.960904      -216.6272
  56   1.0000      -5.978514      -162.6836
  57   1.0000      -5.974263      -162.5680
  58   1.0000      -5.971599      -162.4955
  59   1.0000      -5.920925      -161.1166
  60   1.0000      -5.915880      -160.9793
  61   1.0000      -5.913547      -160.9158
  62   1.0000      -1.250114       -34.0173
  63   1.0000      -1.242960       -33.8227
  64   1.0000      -1.222927       -33.2775
  65   1.0000      -1.206816       -32.8391
  66   1.0000      -1.109118       -30.1806
  67   1.0000      -1.091731       -29.7075
  68   1.0000      -1.084147       -29.5011
  69   1.0000      -1.072163       -29.1751
  70   1.0000      -0.979346       -26.6494
  71   1.0000      -0.946000       -25.7420
  72   1.0000      -0.916000       -24.9256
  73   1.0000      -0.908310       -24.7164
  74   1.0000      -0.889834       -24.2136
  75   1.0000      -0.887755       -24.1571
  76   1.0000      -0.874443       -23.7948
  77   1.0000      -0.858196       -23.3527
  78   1.0000      -0.833074       -22.6691
  79   1.0000      -0.828979       -22.5577
  80   1.0000      -0.814938       -22.1756
  81   1.0000      -0.810094       -22.0438
  82   1.0000      -0.800181       -21.7740
  83   1.0000      -0.792034       -21.5523
  84   1.0000      -0.786801       -21.4099
  85   1.0000      -0.783422       -21.3180
  86   1.0000      -0.781251       -21.2589
  87   1.0000      -0.765521       -20.8309
  88   1.0000      -0.759157       -20.6577
  89   1.0000      -0.755601       -20.5610
  90   1.0000      -0.748619       -20.3710
  91   1.0000      -0.737754       -20.0753
  92   1.0000      -0.729032       -19.8380
  93   1.0000      -0.714084       -19.4312
  94   1.0000      -0.697805       -18.9883
  95   1.0000      -0.680154       -18.5079
  96   1.0000      -0.678761       -18.4700
  97   1.0000      -0.668080       -18.1794
  98   1.0000      -0.661093       -17.9893
  99   1.0000      -0.656442       -17.8627
 100   1.0000      -0.655253       -17.8303
 101   1.0000      -0.637013       -17.3340
 102   1.0000      -0.628313       -17.0973
 103   1.0000      -0.620690       -16.8898
 104   1.0000      -0.615612       -16.7517
 105   1.0000      -0.609288       -16.5796
 106   1.0000      -0.605330       -16.4719
 107   1.0000      -0.602642       -16.3987
 108   1.0000      -0.597547       -16.2601
 109   1.0000      -0.583166       -15.8688
 110   1.0000      -0.576713       -15.6931
 111   1.0000      -0.569294       -15.4913
 112   1.0000      -0.567571       -15.4444
 113   1.0000      -0.559741       -15.2313
 114   1.0000      -0.555415       -15.1136
 115   1.0000      -0.553349       -15.0574
 116   1.0000      -0.544193       -14.8082
 117   1.0000      -0.539165       -14.6714
 118   1.0000      -0.535073       -14.5601
 119   1.0000      -0.529184       -14.3998
 120   1.0000      -0.528088       -14.3700
 121   1.0000      -0.522671       -14.2226
 122   1.0000      -0.513728       -13.9793
 123   1.0000      -0.511744       -13.9253
 124   1.0000      -0.510081       -13.8800
 125   1.0000      -0.507573       -13.8118
 126   1.0000      -0.504352       -13.7241
 127   1.0000      -0.499038       -13.5795
 128   1.0000      -0.492029       -13.3888
 129   1.0000      -0.490834       -13.3563
 130   1.0000      -0.488377       -13.2894
 131   1.0000      -0.484839       -13.1931
 132   1.0000      -0.479669       -13.0524
 133   1.0000      -0.476637       -12.9700
 134   1.0000      -0.473245       -12.8777
 135   1.0000      -0.469774       -12.7832
 136   1.0000      -0.465631       -12.6705
 137   1.0000      -0.457606       -12.4521
 138   1.0000      -0.455442       -12.3932
 139   1.0000      -0.450068       -12.2470
 140   1.0000      -0.447656       -12.1813
 141   1.0000      -0.446580       -12.1521
 142   1.0000      -0.445441       -12.1211
 143   1.0000      -0.440252       -11.9799
 144   1.0000      -0.437424       -11.9029
 145   1.0000      -0.437062       -11.8931
 146   1.0000      -0.434411       -11.8209
 147   1.0000      -0.433587       -11.7985
 148   1.0000      -0.430587       -11.7169
 149   1.0000      -0.426108       -11.5950
 150   1.0000      -0.424315       -11.5462
 151   1.0000      -0.422915       -11.5081
 152   1.0000      -0.420486       -11.4420
 153   1.0000      -0.418223       -11.3804
 154   1.0000      -0.417235       -11.3535
 155   1.0000      -0.415272       -11.3001
 156   1.0000      -0.412670       -11.2293
 157   1.0000      -0.411595       -11.2001
 158   1.0000      -0.408978       -11.1289
 159   1.0000      -0.403232       -10.9725
 160   1.0000      -0.402070       -10.9409
 161   1.0000      -0.398388       -10.8407
 162   1.0000      -0.396968       -10.8021
 163   1.0000      -0.392864       -10.6904
 164   1.0000      -0.389402       -10.5962
 165   1.0000      -0.385424       -10.4879
 166   1.0000      -0.383021       -10.4225
 167   1.0000      -0.379992       -10.3401
 168   1.0000      -0.378465       -10.2986
 169   1.0000      -0.374428       -10.1887
 170   1.0000      -0.369112       -10.0440
 171   1.0000      -0.366389        -9.9700
 172   1.0000      -0.364836        -9.9277
 173   1.0000      -0.362251        -9.8574
 174   1.0000      -0.356654        -9.7050
 175   1.0000      -0.354699        -9.6518
 176   1.0000      -0.351436        -9.5631
 177   1.0000      -0.346749        -9.4355
 178   1.0000      -0.341019        -9.2796
 179   1.0000      -0.337510        -9.1841
 180   1.0000      -0.332957        -9.0602
 181   1.0000      -0.328549        -8.9403
 182   1.0000      -0.326838        -8.8937
 183   1.0000      -0.323961        -8.8154
 184   1.0000      -0.315452        -8.5839
 185   1.0000      -0.309098        -8.4110
 186   1.0000      -0.305783        -8.3208
 187   1.0000      -0.282171        -7.6783
 188   1.0000      -0.264065        -7.1856
 189   1.0000      -0.261379        -7.1125
 190   1.0000      -0.259454        -7.0601
 191   1.0000      -0.249266        -6.7829
 192   1.0000      -0.235502        -6.4083
 193   1.0000      -0.228876        -6.2280
 194   1.0000      -0.227835        -6.1997
 195   1.0000      -0.223953        -6.0941
 196   1.0000      -0.207019        -5.6333
 197   1.0000      -0.203644        -5.5414
 198   1.0000      -0.184869        -5.0306
 199   1.0000      -0.167977        -4.5709
 200   1.0000      -0.063982        -1.7410
 201   0.0000       0.080419         2.1883
 202   0.0000       0.129343         3.5196
 203   0.0000       0.135552         3.6885
 204   0.0000       0.149221         4.0605
 205   0.0000       0.155995         4.2449

                 SPIN DOWN ORBITALS
  NO   OCC          E(Eh)            E(eV)
   0   1.0000     -88.904580     -2419.2166
   1   1.0000     -88.850368     -2417.7414
   2   1.0000     -24.730939      -672.9631
   3   1.0000     -24.722289      -672.7277
   4   1.0000     -24.694470      -671.9707
   5   1.0000     -24.692362      -671.9133
   6   1.0000     -19.199571      -522.4469
   7   1.0000     -19.183199      -522.0014
   8   1.0000     -19.179253      -521.8940
   9   1.0000     -19.174633      -521.7683
  10   1.0000     -14.303733      -389.2244
  11   1.0000     -14.297935      -389.0666
  12   1.0000     -10.303031      -280.3597
  13   1.0000     -10.295856      -280.1645
  14   1.0000     -10.290197      -280.0105
  15   1.0000     -10.272152      -279.5195
  16   1.0000     -10.267522      -279.3935
  17   1.0000     -10.265960      -279.3510
  18   1.0000     -10.263581      -279.2862
  19   1.0000     -10.261147      -279.2200
  20   1.0000     -10.259638      -279.1789
  21   1.0000     -10.259251      -279.1684
  22   1.0000     -10.256101      -279.0827
  23   1.0000     -10.255924      -279.0779
  24   1.0000     -10.255877      -279.0766
  25   1.0000     -10.253651      -279.0160
  26   1.0000     -10.241608      -278.6883
  27   1.0000     -10.235633      -278.5257
  28   1.0000     -10.235586      -278.5245
  29   1.0000     -10.233069      -278.4560
  30   1.0000     -10.230786      -278.3938
  31   1.0000     -10.225326      -278.2453
  32   1.0000     -10.217049      -278.0200
  33   1.0000     -10.216532      -278.0060
  34   1.0000     -10.215376      -277.9745
  35   1.0000     -10.215061      -277.9659
  36   1.0000     -10.214320      -277.9458
  37   1.0000     -10.213700      -277.9289
  38   1.0000     -10.209616      -277.8178
  39   1.0000     -10.209363      -277.8109
  40   1.0000     -10.208731      -277.7937
  41   1.0000     -10.204937      -277.6905
  42   1.0000     -10.199151      -277.5330
  43   1.0000     -10.197497      -277.4880
  44   1.0000     -10.195857      -277.4434
  45   1.0000     -10.195258      -277.4271
  46   1.0000     -10.193271      -277.3730
  47   1.0000     -10.191344      -277.3206
  48   1.0000     -10.189651      -277.2745
  49   1.0000     -10.188516      -277.2436
  50   1.0000     -10.186453      -277.1875
  51   1.0000     -10.185618      -277.1647
  52   1.0000     -10.172674      -276.8125
  53   1.0000     -10.168197      -276.6907
  54   1.0000      -8.019041      -218.2092
  55   1.0000      -7.960829      -216.6252
  56   1.0000      -5.978498      -162.6832
  57   1.0000      -5.974250      -162.5676
  58   1.0000      -5.971529      -162.4936
  59   1.0000      -5.920888      -161.1156
  60   1.0000      -5.915836      -160.9781
  61   1.0000      -5.913225      -160.9070
  62   1.0000      -1.250314       -34.0228
  63   1.0000      -1.242709       -33.8158
  64   1.0000      -1.221965       -33.2513
  65   1.0000      -1.206153       -32.8211
  66   1.0000      -1.109090       -30.1799
  67   1.0000      -1.091638       -29.7050
  68   1.0000      -1.084152       -29.5013
  69   1.0000      -1.072018       -29.1711
  70   1.0000      -0.974723       -26.5236
  71   1.0000      -0.945777       -25.7359
  72   1.0000      -0.915202       -24.9039
  73   1.0000      -0.903780       -24.5931
  74   1.0000      -0.888020       -24.1643
  75   1.0000      -0.887224       -24.1426
  76   1.0000      -0.873134       -23.7592
  77   1.0000      -0.855420       -23.2772
  78   1.0000      -0.832427       -22.6515
  79   1.0000      -0.828507       -22.5448
  80   1.0000      -0.814778       -22.1712
  81   1.0000      -0.809262       -22.0211
  82   1.0000      -0.800148       -21.7731
  83   1.0000      -0.791679       -21.5427
  84   1.0000      -0.785372       -21.3711
  85   1.0000      -0.782961       -21.3055
  86   1.0000      -0.779013       -21.1980
  87   1.0000      -0.764605       -20.8060
  88   1.0000      -0.758526       -20.6405
  89   1.0000      -0.755131       -20.5482
  90   1.0000      -0.747562       -20.3422
  91   1.0000      -0.736500       -20.0412
  92   1.0000      -0.727639       -19.8001
  93   1.0000      -0.712290       -19.3824
  94   1.0000      -0.697184       -18.9713
  95   1.0000      -0.679276       -18.4840
  96   1.0000      -0.676463       -18.4075
  97   1.0000      -0.667168       -18.1546
  98   1.0000      -0.660721       -17.9791
  99   1.0000      -0.656069       -17.8525
 100   1.0000      -0.653534       -17.7836
 101   1.0000      -0.636014       -17.3068
 102   1.0000      -0.627451       -17.0738
 103   1.0000      -0.619691       -16.8627
 104   1.0000      -0.614852       -16.7310
 105   1.0000      -0.609035       -16.5727
 106   1.0000      -0.604739       -16.4558
 107   1.0000      -0.601407       -16.3651
 108   1.0000      -0.596962       -16.2442
 109   1.0000      -0.582677       -15.8554
 110   1.0000      -0.576548       -15.6887
 111   1.0000      -0.568638       -15.4734
 112   1.0000      -0.566293       -15.4096
 113   1.0000      -0.558618       -15.2008
 114   1.0000      -0.554738       -15.0952
 115   1.0000      -0.552633       -15.0379
 116   1.0000      -0.543536       -14.7904
 117   1.0000      -0.538461       -14.6523
 118   1.0000      -0.535031       -14.5589
 119   1.0000      -0.528414       -14.3789
 120   1.0000      -0.527581       -14.3562
 121   1.0000      -0.522146       -14.2083
 122   1.0000      -0.513334       -13.9685
 123   1.0000      -0.511506       -13.9188
 124   1.0000      -0.509534       -13.8651
 125   1.0000      -0.507416       -13.8075
 126   1.0000      -0.503985       -13.7141
 127   1.0000      -0.498521       -13.5655
 128   1.0000      -0.491454       -13.3731
 129   1.0000      -0.489888       -13.3305
 130   1.0000      -0.487699       -13.2710
 131   1.0000      -0.480035       -13.0624
 132   1.0000      -0.478925       -13.0322
 133   1.0000      -0.476229       -12.9588
 134   1.0000      -0.472399       -12.8546
 135   1.0000      -0.468724       -12.7546
 136   1.0000      -0.465375       -12.6635
 137   1.0000      -0.457353       -12.4452
 138   1.0000      -0.455236       -12.3876
 139   1.0000      -0.449687       -12.2366
 140   1.0000      -0.447308       -12.1719
 141   1.0000      -0.445226       -12.1152
 142   1.0000      -0.444065       -12.0836
 143   1.0000      -0.439730       -11.9657
 144   1.0000      -0.436793       -11.8858
 145   1.0000      -0.436518       -11.8782
 146   1.0000      -0.434032       -11.8106
 147   1.0000      -0.431447       -11.7403
 148   1.0000      -0.428881       -11.6704
 149   1.0000      -0.424853       -11.5608
 150   1.0000      -0.422858       -11.5066
 151   1.0000      -0.422446       -11.4953
 152   1.0000      -0.420108       -11.4317
 153   1.0000      -0.418168       -11.3789
 154   1.0000      -0.416077       -11.3220
 155   1.0000      -0.414485       -11.2787
 156   1.0000      -0.411705       -11.2031
 157   1.0000      -0.410853       -11.1799
 158   1.0000      -0.408635       -11.1195
 159   1.0000      -0.402910       -10.9638
 160   1.0000      -0.400624       -10.9015
 161   1.0000      -0.397991       -10.8299
 162   1.0000      -0.395850       -10.7716
 163   1.0000      -0.392378       -10.6771
 164   1.0000      -0.389019       -10.5857
 165   1.0000      -0.385005       -10.4765
 166   1.0000      -0.382156       -10.3990
 167   1.0000      -0.379331       -10.3221
 168   1.0000      -0.376075       -10.2335
 169   1.0000      -0.373527       -10.1642
 170   1.0000      -0.368789       -10.0353
 171   1.0000      -0.365948        -9.9580
 172   1.0000      -0.364506        -9.9187
 173   1.0000      -0.361636        -9.8406
 174   1.0000      -0.355650        -9.6777
 175   1.0000      -0.353754        -9.6261
 176   1.0000      -0.350323        -9.5328
 177   1.0000      -0.345717        -9.4074
 178   1.0000      -0.338147        -9.2014
 179   1.0000      -0.335346        -9.1252
 180   1.0000      -0.328641        -8.9428
 181   1.0000      -0.327354        -8.9078
 182   1.0000      -0.324410        -8.8276
 183   1.0000      -0.320121        -8.7109
 184   1.0000      -0.314439        -8.5563
 185   1.0000      -0.301008        -8.1908
 186   1.0000      -0.299681        -8.1547
 187   1.0000      -0.281207        -7.6520
 188   1.0000      -0.260649        -7.0926
 189   1.0000      -0.256561        -6.9814
 190   1.0000      -0.254624        -6.9287
 191   1.0000      -0.242585        -6.6011
 192   1.0000      -0.232030        -6.3139
 193   1.0000      -0.225083        -6.1248
 194   1.0000      -0.221085        -6.0160
 195   1.0000      -0.215015        -5.8509
 196   1.0000      -0.202617        -5.5135
 197   1.0000      -0.200927        -5.4675
 198   1.0000      -0.176144        -4.7931
 199   1.0000      -0.157242        -4.2788
 200   0.0000       0.078975         2.1490
 201   0.0000       0.116366         3.1665
 202   0.0000       0.134312         3.6548
 203   0.0000       0.147004         4.0002
 204   0.0000       0.152124         4.1395

MULLIKEN ATOMIC CHARGES AND SPIN POPULATIONS
--------------------------------------------
   0 C :   -0.194360    0.208525
   1 C :    0.258750   -0.008991
   2 C :    0.108162    0.131423
   3 C :    0.028093    0.121569
   4 C :    0.012923   -0.052273
   5 C :    0.027937   -0.090089
   6 N :   -0.173488    0.135909
   7 C :    0.018213    0.150427
   8 C :   -0.014472   -0.016034
   9 N :   -0.108606    0.220045
  10 F :   -0.227965    0.000756
  11 F :   -0.217484    0.008318
  12 C :   -0.052911    0.090169
  13 C :   -0.019387   -0.054971
  14 C :   -0.080603    0.098792
  15 S :    0.092936    0.019085
  16 C :   -0.074289   -0.048728
  17 C :   -0.044671   -0.032364
  18 C :   -0.100988    0.030987
  19 C :    0.182333   -0.017819
  20 C :    0.162948    0.029962
  21 C :   -0.076800   -0.019481
  22 C :    0.042989    0.031462
  23 C :   -0.008066    0.002578
  24 C :    0.004538    0.003928
  25 C :   -0.117509   -0.002702
  26 C :    0.161333    0.003717
  27 C :    0.163003   -0.002097
  28 C :   -0.034428    0.005639
  29 O :   -0.368488    0.000190
  30 C :    0.116656   -0.000015
  31 C :   -0.029855    0.000002
  32 O :   -0.348008   -0.000139
  33 C :    0.156226    0.000008
  34 C :   -0.038916   -0.000000
  35 O :   -0.353089    0.003267
  36 C :    0.148810   -0.000202
  37 C :   -0.042558    0.000017
  38 O :   -0.373568   -0.001056
  39 C :    0.130342    0.000127
  40 C :   -0.056634    0.000000
  41 C :    0.038437   -0.030022
  42 C :   -0.131422    0.047455
  43 C :    0.251357   -0.029018
  44 C :    0.048198    0.054773
  45 C :   -0.135327   -0.024180
  46 C :    0.239827    0.031285
  47 C :   -0.107668   -0.022838
  48 S :    0.064241    0.004084
  49 C :   -0.091828    0.019491
  50 C :    0.010949   -0.012109
  51 C :   -0.032787    0.025855
  52 F :   -0.212790    0.001320
  53 F :   -0.208741   -0.001118
  54 H :   -0.033698   -0.009539
  55 H :   -0.008503   -0.003759
  56 H :   -0.014907    0.001961
  57 H :   -0.009150    0.000063
  58 H :   -0.015620    0.000758
  59 H :   -0.006277   -0.001044
  60 H :   -0.008970   -0.000773
  61 H :   -0.019783    0.000117
  62 H :    0.006347   -0.000317
  63 H :    0.028108    0.000057
  64 H :    0.029163    0.000050
  65 H :    0.039040    0.000002
  66 H :    0.025416   -0.000002
  67 H :    0.040670   -0.000001
  68 H :    0.015451   -0.000007
  69 H :    0.023048   -0.000010
  70 H :    0.035573   -0.000000
  71 H :    0.014974    0.000001
  72 H :    0.042019   -0.000000
  73 H :    0.033263    0.000324
  74 H :    0.022976    0.000307
  75 H :    0.033194   -0.000004
  76 H :    0.019607   -0.000009
  77 H :    0.027999    0.000000
  78 H :    0.030047    0.000003
  79 H :    0.042442   -0.000501
  80 H :    0.026740    0.000019
  81 H :    0.032611    0.000020
  82 H :    0.048921   -0.000132
  83 H :    0.033977   -0.001855
  84 H :    0.008815    0.000838
  85 H :    0.039563   -0.000875
  86 H :    0.004525    0.000430
  87 H :    0.020926   -0.001042
Sum of atomic charges         :   -1.0000000

LOEWDIN ATOMIC CHARGES AND SPIN POPULATIONS
-------------------------------------------
   0 C :   -0.120959    0.159792
   1 C :    0.035079    0.018087
   2 C :    0.027226    0.113414
   3 C :   -0.125005    0.095773
   4 C :   -0.000019   -0.031205
   5 C :   -0.008231   -0.056934
   6 N :   -0.126788    0.128836
   7 C :   -0.038063    0.126760
   8 C :   -0.024255    0.006876
   9 N :   -0.120383    0.197632
  10 F :   -0.088299    0.001215
  11 F :   -0.077194    0.012090
  12 C :   -0.101161    0.066128
  13 C :   -0.061473   -0.035220
  14 C :   -0.236601    0.078158
  15 S :    0.467752    0.021095
  16 C :   -0.150983   -0.019328
  17 C :   -0.041965   -0.016387
  18 C :   -0.057530    0.024280
  19 C :    0.016891   -0.010618
  20 C :    0.023699    0.022972
  21 C :   -0.052949   -0.011853
  22 C :   -0.029080    0.023444
  23 C :   -0.035997    0.000459
  24 C :   -0.023537    0.003822
  25 C :   -0.081980   -0.001538
  26 C :    0.007835    0.002952
  27 C :    0.029716   -0.000634
  28 C :   -0.025204    0.003744
  29 O :   -0.120012    0.000323
  30 C :    0.080103    0.000016
  31 C :   -0.067686    0.000002
  32 O :   -0.117027   -0.000188
  33 C :    0.080832    0.000003
  34 C :   -0.071630    0.000001
  35 O :   -0.121503    0.004238
  36 C :    0.081491    0.000071
  37 C :   -0.073633    0.000005
  38 O :   -0.115467   -0.001526
  39 C :    0.076585    0.000127
  40 C :   -0.076250   -0.000005
  41 C :   -0.044181   -0.013219
  42 C :   -0.055191    0.035159
  43 C :    0.089910   -0.018056
  44 C :   -0.093883    0.039394
  45 C :   -0.056041   -0.014736
  46 C :    0.075924    0.023336
  47 C :   -0.156908   -0.013494
  48 S :    0.408577    0.004013
  49 C :   -0.203714    0.015911
  50 C :   -0.072850   -0.007540
  51 C :   -0.073973    0.019324
  52 F :   -0.075055    0.001994
  53 F :   -0.067258   -0.001699
  54 H :    0.027559    0.000451
  55 H :    0.019149    0.000184
  56 H :    0.016666   -0.000097
  57 H :    0.022731    0.000957
  58 H :    0.026016   -0.000004
  59 H :    0.028127    0.000315
  60 H :    0.028238   -0.000086
  61 H :    0.022964    0.000037
  62 H :    0.036985    0.000341
  63 H :    0.011841    0.000038
  64 H :    0.012343    0.000029
  65 H :    0.028437    0.000002
  66 H :    0.027313   -0.000001
  67 H :    0.029095    0.000000
  68 H :    0.007988   -0.000004
  69 H :    0.009018   -0.000002
  70 H :    0.027108   -0.000000
  71 H :    0.022559    0.000001
  72 H :    0.029647   -0.000000
  73 H :    0.012086    0.000184
  74 H :    0.009627    0.000182
  75 H :    0.025756    0.000002
  76 H :    0.023948   -0.000002
  77 H :    0.023392    0.000004
  78 H :    0.022025   -0.000007
  79 H :    0.012335   -0.000013
  80 H :    0.023563    0.000010
  81 H :    0.030237    0.000009
  82 H :    0.030680    0.000014
  83 H :    0.038479    0.000114
  84 H :    0.026666   -0.000001
  85 H :    0.019150    0.000065
  86 H :    0.027091   -0.000012
  87 H :    0.029481    0.000025

  Mayer bond orders larger than 0.100000
B(  0-C ,  1-C ) :   1.2850 B(  0-C ,  5-C ) :   1.2497 B(  0-C , 54-H ) :   1.0368
B(  1-C ,  2-C ) :   1.3285 B(  1-C , 10-F ) :   1.0403 B(  2-C ,  3-C ) :   1.2381
B(  2-C , 11-F ) :   1.0820 B(  3-C ,  4-C ) :   1.1869 B(  3-C , 16-C ) :   1.1733
B(  4-C ,  5-C ) :   1.2145 B(  4-C ,  6-N ) :   1.4364 B(  5-C ,  9-N ) :   1.3929
B(  6-N ,  7-C ) :   1.4747 B(  6-N , 15-S ) :   0.1015 B(  7-C ,  8-C ) :   1.3045
B(  7-C , 17-C ) :   0.9816 B(  8-C ,  9-N ) :   1.5798 B(  8-C , 23-C ) :   0.9788
B( 12-C , 13-C ) :   1.2999 B( 12-C , 16-C ) :   1.4436 B( 12-C , 55-H ) :   0.9965
B( 13-C , 14-C ) :   1.4681 B( 13-C , 56-H ) :   0.9983 B( 14-C , 15-S ) :   1.0344
B( 14-C , 41-C ) :   1.1224 B( 15-S , 16-C ) :   1.1341 B( 17-C , 18-C ) :   1.3513
B( 17-C , 22-C ) :   1.3865 B( 18-C , 19-C ) :   1.2938 B( 18-C , 57-H ) :   0.9915
B( 19-C , 20-C ) :   1.3136 B( 19-C , 38-O ) :   1.0729 B( 20-C , 21-C ) :   1.4003
B( 20-C , 35-O ) :   1.1229 B( 21-C , 22-C ) :   1.3745 B( 21-C , 58-H ) :   0.9958
B( 22-C , 59-H ) :   0.9912 B( 23-C , 24-C ) :   1.3955 B( 23-C , 28-C ) :   1.3631
B( 24-C , 25-C ) :   1.3226 B( 24-C , 60-H ) :   1.0000 B( 25-C , 26-C ) :   1.3154
B( 25-C , 61-H ) :   0.9997 B( 26-C , 27-C ) :   1.3139 B( 26-C , 29-O ) :   1.0744
B( 27-C , 28-C ) :   1.4081 B( 27-C , 32-O ) :   1.1254 B( 28-C , 62-H ) :   0.9959
B( 29-O , 30-C ) :   0.9495 B( 30-C , 31-C ) :   1.0862 B( 30-C , 63-H ) :   0.9521
B( 30-C , 64-H ) :   0.9515 B( 31-C , 65-H ) :   0.9722 B( 31-C , 66-H ) :   0.9662
B( 31-C , 67-H ) :   0.9719 B( 32-O , 33-C ) :   0.9304 B( 33-C , 34-C ) :   1.0795
B( 33-C , 68-H ) :   0.9591 B( 33-C , 69-H ) :   0.9592 B( 34-C , 70-H ) :   0.9711
B( 34-C , 71-H ) :   0.9674 B( 34-C , 72-H ) :   0.9714 B( 35-O , 36-C ) :   0.9209
B( 36-C , 37-C ) :   1.0783 B( 36-C , 73-H ) :   0.9566 B( 36-C , 74-H ) :   0.9592
B( 37-C , 75-H ) :   0.9711 B( 37-C , 76-H ) :   0.9683 B( 37-C , 77-H ) :   0.9711
B( 38-O , 39-C ) :   0.9389 B( 39-C , 40-C ) :   1.0985 B( 39-C , 78-H ) :   0.9603
B( 39-C , 79-H ) :   0.9423 B( 40-C , 80-H ) :   0.9669 B( 40-C , 81-H ) :   0.9669
B( 40-C , 82-H ) :   0.9673 B( 41-C , 42-C ) :   1.2715 B( 41-C , 46-C ) :   1.2900
B( 42-C , 43-C ) :   1.4056 B( 42-C , 83-H ) :   0.9907 B( 43-C , 44-C ) :   1.3188
B( 43-C , 53-F ) :   1.0413 B( 44-C , 45-C ) :   1.2651 B( 44-C , 47-C ) :   1.0858
B( 45-C , 46-C ) :   1.4377 B( 45-C , 84-H ) :   0.9827 B( 46-C , 52-F ) :   1.0736
B( 47-C , 48-S ) :   1.1377 B( 47-C , 51-C ) :   1.5677 B( 48-S , 49-C ) :   1.1515
B( 49-C , 50-C ) :   1.5809 B( 49-C , 85-H ) :   0.9758 B( 50-C , 51-C ) :   1.2437
B( 50-C , 86-H ) :   0.9947 B( 51-C , 87-H ) :   0.9947

-----------------------------------------------------------------------------
         ABSORPTION SPECTRUM VIA TRANSITION ELECTRIC DIPOLE MOMENTS
-----------------------------------------------------------------------------
State   Energy  Wavelength   fosc         T2         TX        TY        TZ
        (cm-1)    (nm)                  (au**2)     (au)      (au)      (au)
-----------------------------------------------------------------------------
   0   11136.3    898.0   0.298264332   8.81734   0.53565  -2.90215   0.32857
   1   12797.7    781.4   0.008601017   0.22126  -0.35959   0.30255   0.02035
   2   19641.7    509.1   0.103054946   1.72729  -1.28286  -0.28335  -0.03588
   3   24671.2    405.3   0.426028599   5.68491   0.47781   2.32717  -0.20219
   4   25290.6    395.4   0.063732222   0.82961   0.15210   0.89678   0.04749
   5   26598.2    376.0   0.011571793   0.14323   0.07974  -0.36990  -0.00638
   6   27489.5    363.8   0.001893278   0.02267   0.02615   0.13564  -0.05992
   7   28357.0    352.6   0.245247245   2.84721  -0.25556  -1.65730   0.18779
   8   28998.9    344.8   0.374646983   4.25321   0.39292   2.02012  -0.13393
   9   29866.3    334.8   0.011387988   0.12553   0.16024   0.30159  -0.09432
  10   30588.8    326.9   0.020721299   0.22301  -0.46222  -0.09673  -0.00326
  11   31167.2    320.9   0.018014683   0.19028  -0.07540  -0.42113  -0.08514
  12   33057.6    302.5   0.533544299   5.31343  -1.43441  -1.79302   0.20250
  13   33589.7    297.7   0.194653079   1.90779  -1.27336  -0.53504  -0.00879
  14   34810.9    287.3   0.023129065   0.21874  -0.39958   0.22706  -0.08669
  15   35648.4    280.5   0.025410386   0.23466   0.15639   0.44351  -0.11621
  16   36917.7    270.9   0.107562150   0.95918  -0.97932  -0.01021  -0.00363
  17   37293.8    268.1   0.020013527   0.17667   0.25883   0.30048  -0.13926
  18   37934.1    263.6   0.009203166   0.07987  -0.21413  -0.17714  -0.05137
  19   38681.6    258.5   0.111138651   0.94588   0.59501   0.76013  -0.11856
  20   39152.9    255.4   0.086425730   0.72670  -0.83329   0.13195  -0.12211
  21   39244.8    254.8   0.144126709   1.20903   0.26394  -1.05307   0.17438
  22   39328.6    254.3   0.077528715   0.64898  -0.22844  -0.76826   0.08101
  23   39572.1    252.7   0.025789849   0.21455   0.29217  -0.32782   0.14740
  24   39874.7    250.8   0.003005907   0.02482   0.02401   0.15566  -0.00326
  25   40215.8    248.7   0.139943960   1.14560  -1.05588  -0.14296  -0.10139
  26   40322.7    248.0   0.054025242   0.44109   0.42698  -0.46817   0.19895

Dispersion correction           -0.052780420
FINAL SINGLE POINT ENERGY     -3224.429122904438

DIPOLE MOMENT
-------------
                                X             Y             Z
Electronic contribution:     86.26285     -27.84323      20.99553
Nuclear contribution   :    -90.57263      26.54921     -21.68083
                        -----------------------------------------
Total Dipole Moment    :     -4.30978      -1.29402      -0.68530
                        -----------------------------------------
Magnitude (a.u.)       :      4.55174
Magnitude (Debye)      :     11.56960

Rotational constants in cm-1:     0.001950     0.000976     0.000687
Rotational constants in MHz :    58.449674    29.264984    20.608966

                             ****ORCA TERMINATED NORMALLY****
TOTAL RUN TIME: 0 days 0 hours 16 minutes 1 seconds 534 msec
